<?xml version="1.0" encoding="UTF-8"?>

<!-- generated on 2023-03-14 17:07:19 by Eclipse SUMO GUI Version 1.14.1
<configuration xmlns:xsi="http://www.w3.org/2001/XMLSchema-instance" xsi:noNamespaceSchemaLocation="http://sumo.dlr.de/xsd/sumoConfiguration.xsd">

    <input>
        <net-file value="/Users/gjy/OITSC_Urban/nets/1km/selected1km.net.xml"/>
        <route-files value="/Users/gjy/OITSC_Urban/nets/1km/selected1km_1kSec.rou.xml"/>
    </input>

    <output>
        <tripinfo-output value="ImplicitObservation-QL-tripinfo-baseline-run1.xml"/>
    </output>

    <processing>
        <time-to-teleport value="-1"/>
        <waiting-time-memory value="10000"/>
    </processing>

    <traci_server>
        <remote-port value="57088"/>
    </traci_server>

    <random_number>
        <random value="true"/>
    </random_number>

    <gui_only>
        <quit-on-end value="true"/>
        <start value="true"/>
    </gui_only>

</configuration>
-->

<tripinfos xmlns:xsi="http://www.w3.org/2001/XMLSchema-instance" xsi:noNamespaceSchemaLocation="http://sumo.dlr.de/xsd/tripinfo_file.xsd">
    <tripinfo id="158_2.372" depart="0.00" departLane="-3791745#3_1" departPos="45.46" departSpeed="10.28" departDelay="0.00" arrival="13.00" arrivalLane="-43538577#3_0" arrivalPos="66.08" arrivalSpeed="9.51" duration="13.00" routeLength="121.75" waitingTime="0.00" waitingCount="0" stopTime="0.00" timeLoss="0.92" rerouteNo="0" devices="tripinfo_158_2.372" vType="DEFAULT_VEHTYPE" speedFactor="1.23" vaporized=""/>
    <tripinfo id="643_1.463" depart="24.00" departLane="22962979_0" departPos="12.15" departSpeed="8.06" departDelay="0.22" arrival="59.00" arrivalLane="532427444#4_0" arrivalPos="73.98" arrivalSpeed="7.08" duration="35.00" routeLength="163.76" waitingTime="10.00" waitingCount="1" stopTime="0.00" timeLoss="13.62" rerouteNo="0" devices="tripinfo_643_1.463" vType="DEFAULT_VEHTYPE" speedFactor="0.97" vaporized=""/>
    <tripinfo id="635_4.160" depart="32.00" departLane="229823258_0" departPos="4.74" departSpeed="2.06" departDelay="0.00" arrival="59.00" arrivalLane="369977731_0" arrivalPos="101.59" arrivalSpeed="7.26" duration="27.00" routeLength="204.42" waitingTime="0.00" waitingCount="0" stopTime="0.00" timeLoss="2.46" rerouteNo="0" devices="tripinfo_635_4.160" vType="DEFAULT_VEHTYPE" speedFactor="1.02" vaporized=""/>
    <tripinfo id="112_3.327" depart="53.00" departLane="43321718#3_0" departPos="36.50" departSpeed="7.95" departDelay="0.79" arrival="60.00" arrivalLane="5976022_0" arrivalPos="2.38" arrivalSpeed="7.36" duration="7.00" routeLength="42.62" waitingTime="0.00" waitingCount="0" stopTime="0.00" timeLoss="1.23" rerouteNo="0" devices="tripinfo_112_3.327" vType="DEFAULT_VEHTYPE" speedFactor="0.95" vaporized=""/>
    <tripinfo id="693_1.530" depart="0.00" departLane="26545993#0_0" departPos="100.45" departSpeed="9.04" departDelay="0.00" arrival="63.00" arrivalLane="4074531#0_0" arrivalPos="129.52" arrivalSpeed="8.99" duration="63.00" routeLength="166.87" waitingTime="40.00" waitingCount="1" stopTime="0.00" timeLoss="43.82" rerouteNo="0" devices="tripinfo_693_1.530" vType="DEFAULT_VEHTYPE" speedFactor="1.09" vaporized=""/>
    <tripinfo id="356_1.1491" depart="38.00" departLane="3792490#0_0" departPos="26.31" departSpeed="9.00" departDelay="0.86" arrival="66.00" arrivalLane="3792491#0_0" arrivalPos="137.26" arrivalSpeed="8.79" duration="28.00" routeLength="236.79" waitingTime="0.00" waitingCount="0" stopTime="0.00" timeLoss="1.50" rerouteNo="0" devices="tripinfo_356_1.1491" vType="DEFAULT_VEHTYPE" speedFactor="1.08" vaporized=""/>
    <tripinfo id="115_2.389" depart="40.00" departLane="43321718#3_0" departPos="10.80" departSpeed="8.20" departDelay="0.59" arrival="66.00" arrivalLane="42636056_0" arrivalPos="44.42" arrivalSpeed="7.60" duration="26.00" routeLength="201.14" waitingTime="0.00" waitingCount="0" stopTime="0.00" timeLoss="1.96" rerouteNo="0" devices="tripinfo_115_2.389" vType="DEFAULT_VEHTYPE" speedFactor="0.98" vaporized=""/>
    <tripinfo id="634_3.160" depart="50.00" departLane="229823258_0" departPos="3.34" departSpeed="3.46" departDelay="0.00" arrival="76.00" arrivalLane="369977731_0" arrivalPos="101.59" arrivalSpeed="8.68" duration="26.00" routeLength="205.82" waitingTime="0.00" waitingCount="0" stopTime="0.00" timeLoss="2.03" rerouteNo="0" devices="tripinfo_634_3.160" vType="DEFAULT_VEHTYPE" speedFactor="1.07" vaporized=""/>
    <tripinfo id="113_4.864" depart="47.00" departLane="22962979_0" departPos="39.51" departSpeed="8.24" departDelay="0.93" arrival="78.00" arrivalLane="14152308_0" arrivalPos="25.16" arrivalSpeed="7.84" duration="31.00" routeLength="226.78" waitingTime="0.00" waitingCount="0" stopTime="0.00" timeLoss="2.70" rerouteNo="0" devices="tripinfo_113_4.864" vType="DEFAULT_VEHTYPE" speedFactor="0.99" vaporized=""/>
    <tripinfo id="718_3.169" depart="50.00" departLane="317003249#1_0" departPos="3.45" departSpeed="7.58" departDelay="0.00" arrival="81.00" arrivalLane="-43538577#3_0" arrivalPos="66.08" arrivalSpeed="6.35" duration="31.00" routeLength="208.61" waitingTime="0.00" waitingCount="0" stopTime="0.00" timeLoss="2.58" rerouteNo="0" devices="tripinfo_718_3.169" vType="DEFAULT_VEHTYPE" speedFactor="0.91" vaporized=""/>
    <tripinfo id="503_5.745" depart="36.00" departLane="43321718#3_0" departPos="27.12" departSpeed="8.39" departDelay="0.91" arrival="89.00" arrivalLane="8080823#0_0" arrivalPos="112.35" arrivalSpeed="7.44" duration="53.00" routeLength="407.16" waitingTime="0.00" waitingCount="0" stopTime="0.00" timeLoss="5.14" rerouteNo="0" devices="tripinfo_503_5.745" vType="DEFAULT_VEHTYPE" speedFactor="1.01" vaporized=""/>
    <tripinfo id="356_1.1492" depart="63.00" departLane="3792490#0_0" departPos="41.55" departSpeed="9.20" departDelay="0.14" arrival="90.00" arrivalLane="3792491#0_0" arrivalPos="137.26" arrivalSpeed="9.02" duration="27.00" routeLength="221.55" waitingTime="0.00" waitingCount="0" stopTime="0.00" timeLoss="2.03" rerouteNo="0" devices="tripinfo_356_1.1492" vType="DEFAULT_VEHTYPE" speedFactor="1.10" vaporized=""/>
    <tripinfo id="462_7.356" depart="53.00" departLane="43321718#3_0" departPos="11.90" departSpeed="7.80" departDelay="0.53" arrival="95.00" arrivalLane="38192815_0" arrivalPos="87.29" arrivalSpeed="6.56" duration="42.00" routeLength="296.39" waitingTime="0.00" waitingCount="0" stopTime="0.00" timeLoss="4.64" rerouteNo="0" devices="tripinfo_462_7.356" vType="DEFAULT_VEHTYPE" speedFactor="0.94" vaporized=""/>
    <tripinfo id="28_4.231" depart="69.00" departLane="230483152#0_0" departPos="49.28" departSpeed="11.07" departDelay="0.18" arrival="97.00" arrivalLane="4475731_0" arrivalPos="161.35" arrivalSpeed="11.05" duration="28.00" routeLength="288.07" waitingTime="0.00" waitingCount="0" stopTime="0.00" timeLoss="1.53" rerouteNo="0" devices="tripinfo_28_4.231" vType="DEFAULT_VEHTYPE" speedFactor="1.33" vaporized=""/>
    <tripinfo id="645_5.942" depart="72.00" departLane="22962979_0" departPos="7.26" departSpeed="8.26" departDelay="0.22" arrival="101.00" arrivalLane="532427444#4_0" arrivalPos="73.98" arrivalSpeed="7.62" duration="29.00" routeLength="168.65" waitingTime="3.00" waitingCount="1" stopTime="0.00" timeLoss="7.72" rerouteNo="0" devices="tripinfo_645_5.942" vType="DEFAULT_VEHTYPE" speedFactor="0.99" vaporized=""/>
    <tripinfo id="158_2.373" depart="40.00" departLane="-3791745#3_1" departPos="13.50" departSpeed="8.00" departDelay="0.00" arrival="105.00" arrivalLane="-43538577#3_0" arrivalPos="66.08" arrivalSpeed="7.58" duration="65.00" routeLength="153.71" waitingTime="41.00" waitingCount="1" stopTime="0.00" timeLoss="45.72" rerouteNo="0" devices="tripinfo_158_2.373" vType="DEFAULT_VEHTYPE" speedFactor="0.96" vaporized=""/>
    <tripinfo id="158_2.374" depart="80.00" departLane="-3791745#3_1" departPos="22.70" departSpeed="8.59" departDelay="0.00" arrival="107.00" arrivalLane="-43538577#3_0" arrivalPos="66.08" arrivalSpeed="8.48" duration="27.00" routeLength="144.51" waitingTime="4.00" waitingCount="1" stopTime="0.00" timeLoss="10.04" rerouteNo="0" devices="tripinfo_158_2.374" vType="DEFAULT_VEHTYPE" speedFactor="1.03" vaporized=""/>
    <tripinfo id="632_1.168" depart="80.00" departLane="229823258_0" departPos="2.03" departSpeed="4.64" departDelay="0.00" arrival="108.00" arrivalLane="369977731_0" arrivalPos="101.59" arrivalSpeed="8.11" duration="28.00" routeLength="207.13" waitingTime="0.00" waitingCount="0" stopTime="0.00" timeLoss="2.90" rerouteNo="0" devices="tripinfo_632_1.168" vType="DEFAULT_VEHTYPE" speedFactor="1.01" vaporized=""/>
    <tripinfo id="361_5.170" depart="72.00" departLane="3791031#0_1" departPos="65.67" departSpeed="8.33" departDelay="0.56" arrival="109.00" arrivalLane="4074531#0_1" arrivalPos="129.52" arrivalSpeed="8.04" duration="37.00" routeLength="199.15" waitingTime="9.00" waitingCount="1" stopTime="0.00" timeLoss="12.49" rerouteNo="0" devices="tripinfo_361_5.170" vType="DEFAULT_VEHTYPE" speedFactor="1.00" vaporized=""/>
    <tripinfo id="240_2.161" depart="71.00" departLane="3791031#0_0" departPos="108.23" departSpeed="7.55" departDelay="0.22" arrival="112.00" arrivalLane="4074531#0_0" arrivalPos="129.52" arrivalSpeed="7.39" duration="41.00" routeLength="162.52" waitingTime="14.00" waitingCount="1" stopTime="0.00" timeLoss="18.76" rerouteNo="0" devices="tripinfo_240_2.161" vType="DEFAULT_VEHTYPE" speedFactor="0.91" vaporized=""/>
    <tripinfo id="72_5.400" depart="47.00" departLane="22962979_0" departPos="58.04" departSpeed="9.15" departDelay="0.17" arrival="119.00" arrivalLane="8080823#0_0" arrivalPos="112.35" arrivalSpeed="8.73" duration="72.00" routeLength="612.30" waitingTime="0.00" waitingCount="0" stopTime="0.00" timeLoss="5.49" rerouteNo="0" devices="tripinfo_72_5.400" vType="DEFAULT_VEHTYPE" speedFactor="1.10" vaporized=""/>
    <tripinfo id="79_6.174" depart="88.00" departLane="-77616869#2_0" departPos="43.19" departSpeed="9.13" departDelay="0.95" arrival="119.00" arrivalLane="-43321718#3_0" arrivalPos="37.17" arrivalSpeed="9.02" duration="31.00" routeLength="261.16" waitingTime="0.00" waitingCount="0" stopTime="0.00" timeLoss="2.49" rerouteNo="0" devices="tripinfo_79_6.174" vType="DEFAULT_VEHTYPE" speedFactor="1.10" vaporized=""/>
    <tripinfo id="171_3.429" depart="85.00" departLane="43321718#3_0" departPos="19.43" departSpeed="7.95" departDelay="0.44" arrival="124.00" arrivalLane="77616869#0_0" arrivalPos="90.89" arrivalSpeed="7.04" duration="39.00" routeLength="290.07" waitingTime="0.00" waitingCount="0" stopTime="0.00" timeLoss="3.37" rerouteNo="0" devices="tripinfo_171_3.429" vType="DEFAULT_VEHTYPE" speedFactor="0.95" vaporized=""/>
    <tripinfo id="25_1.90" depart="99.00" departLane="230483152#0_0" departPos="154.22" departSpeed="8.07" departDelay="0.18" arrival="125.00" arrivalLane="4475731_0" arrivalPos="161.35" arrivalSpeed="6.96" duration="26.00" routeLength="183.13" waitingTime="0.00" waitingCount="0" stopTime="0.00" timeLoss="2.19" rerouteNo="0" devices="tripinfo_25_1.90" vType="DEFAULT_VEHTYPE" speedFactor="0.97" vaporized=""/>
    <tripinfo id="358_1.145" depart="102.00" departLane="3791031#0_0" departPos="113.82" departSpeed="7.15" departDelay="0.56" arrival="127.00" arrivalLane="4074531#0_0" arrivalPos="129.52" arrivalSpeed="6.43" duration="25.00" routeLength="156.93" waitingTime="0.00" waitingCount="0" stopTime="0.00" timeLoss="2.24" rerouteNo="0" devices="tripinfo_358_1.145" vType="DEFAULT_VEHTYPE" speedFactor="0.86" vaporized=""/>
    <tripinfo id="633_2.200" depart="104.00" departLane="229823258_0" departPos="1.85" departSpeed="4.72" departDelay="0.00" arrival="128.00" arrivalLane="369977731_0" arrivalPos="101.59" arrivalSpeed="9.25" duration="24.00" routeLength="207.31" waitingTime="0.00" waitingCount="0" stopTime="0.00" timeLoss="2.08" rerouteNo="0" devices="tripinfo_633_2.200" vType="DEFAULT_VEHTYPE" speedFactor="1.18" vaporized=""/>
    <tripinfo id="1273_1.313" depart="10.00" departLane="4472590#0_1" departPos="36.13" departSpeed="8.75" departDelay="0.78" arrival="130.00" arrivalLane="-43321718#3_0" arrivalPos="37.17" arrivalSpeed="7.95" duration="120.00" routeLength="874.00" waitingTime="7.00" waitingCount="1" stopTime="0.00" timeLoss="21.46" rerouteNo="0" devices="tripinfo_1273_1.313" vType="DEFAULT_VEHTYPE" speedFactor="1.05" vaporized=""/>
    <tripinfo id="694_3.172" depart="80.00" departLane="26545993#0_0" departPos="23.74" departSpeed="10.82" departDelay="0.00" arrival="138.00" arrivalLane="4074531#0_0" arrivalPos="129.52" arrivalSpeed="10.06" duration="58.00" routeLength="243.58" waitingTime="30.00" waitingCount="1" stopTime="0.00" timeLoss="34.68" rerouteNo="0" devices="tripinfo_694_3.172" vType="DEFAULT_VEHTYPE" speedFactor="1.30" vaporized=""/>
    <tripinfo id="402_3.706" depart="102.00" departLane="43321718#3_0" departPos="23.03" departSpeed="8.09" departDelay="0.73" arrival="138.00" arrivalLane="369977731_0" arrivalPos="101.59" arrivalSpeed="7.89" duration="36.00" routeLength="259.21" waitingTime="0.00" waitingCount="0" stopTime="0.00" timeLoss="3.49" rerouteNo="0" devices="tripinfo_402_3.706" vType="DEFAULT_VEHTYPE" speedFactor="0.97" vaporized=""/>
    <tripinfo id="FuelTruck_1" depart="120.00" departLane="-3791031#3_0" departPos="10.10" departSpeed="0.00" departDelay="0.00" arrival="138.00" arrivalLane="-3791031#3_0" arrivalPos="125.07" arrivalSpeed="8.05" duration="18.00" routeLength="114.97" waitingTime="0.00" waitingCount="0" stopTime="0.00" timeLoss="3.34" rerouteNo="0" devices="tripinfo_FuelTruck_1" vType="fueltruck" speedFactor="1.00" vaporized=""/>
    <tripinfo id="501_2.401" depart="66.00" departLane="43321718#3_0" departPos="13.07" departSpeed="6.75" departDelay="0.12" arrival="139.00" arrivalLane="8080823#0_0" arrivalPos="112.35" arrivalSpeed="6.64" duration="73.00" routeLength="421.21" waitingTime="2.00" waitingCount="1" stopTime="0.00" timeLoss="11.00" rerouteNo="0" devices="tripinfo_501_2.401" vType="DEFAULT_VEHTYPE" speedFactor="0.81" vaporized=""/>
    <tripinfo id="1274_2.129" depart="10.00" departLane="4472590#0_1" departPos="25.24" departSpeed="6.07" departDelay="0.78" arrival="140.00" arrivalLane="-43321718#3_0" arrivalPos="37.17" arrivalSpeed="8.53" duration="130.00" routeLength="884.89" waitingTime="8.00" waitingCount="2" stopTime="0.00" timeLoss="31.66" rerouteNo="0" devices="tripinfo_1274_2.129" vType="DEFAULT_VEHTYPE" speedFactor="1.07" vaporized=""/>
    <tripinfo id="645_5.944" depart="133.00" departLane="43321718#3_0" departPos="14.16" departSpeed="7.14" departDelay="0.65" arrival="140.00" arrivalLane="43321722_0" arrivalPos="14.17" arrivalSpeed="6.19" duration="7.00" routeLength="45.01" waitingTime="0.00" waitingCount="0" stopTime="0.00" timeLoss="0.62" rerouteNo="0" devices="tripinfo_645_5.944" vType="DEFAULT_VEHTYPE" speedFactor="0.86" vaporized=""/>
    <tripinfo id="693_1.532" depart="80.00" departLane="26545993#0_0" departPos="11.00" departSpeed="8.55" departDelay="0.00" arrival="144.00" arrivalLane="4074531#0_0" arrivalPos="129.52" arrivalSpeed="8.07" duration="64.00" routeLength="256.32" waitingTime="27.00" waitingCount="1" stopTime="0.00" timeLoss="33.01" rerouteNo="0" devices="tripinfo_693_1.532" vType="DEFAULT_VEHTYPE" speedFactor="1.03" vaporized=""/>
    <tripinfo id="125_4.118" depart="140.00" departLane="-3791031#3_0" departPos="80.59" departSpeed="8.55" departDelay="0.00" arrival="146.00" arrivalLane="-3791031#3_0" arrivalPos="125.07" arrivalSpeed="7.50" duration="6.00" routeLength="44.48" waitingTime="0.00" waitingCount="0" stopTime="0.00" timeLoss="0.50" rerouteNo="0" devices="tripinfo_125_4.118" vType="DEFAULT_VEHTYPE" speedFactor="1.03" vaporized=""/>
    <tripinfo id="635_4.161" depart="106.00" departLane="229823258_0" departPos="2.45" departSpeed="4.35" departDelay="2.00" arrival="149.00" arrivalLane="369977731_0" arrivalPos="101.59" arrivalSpeed="5.11" duration="43.00" routeLength="206.71" waitingTime="4.00" waitingCount="1" stopTime="0.00" timeLoss="9.72" rerouteNo="0" devices="tripinfo_635_4.161" vType="DEFAULT_VEHTYPE" speedFactor="0.76" vaporized=""/>
    <tripinfo id="431_2.223" depart="13.00" departLane="4472590#0_1" departPos="17.58" departSpeed="8.28" departDelay="0.77" arrival="151.00" arrivalLane="369977731_0" arrivalPos="101.59" arrivalSpeed="7.85" duration="138.00" routeLength="1028.48" waitingTime="0.00" waitingCount="0" stopTime="0.00" timeLoss="13.56" rerouteNo="0" devices="tripinfo_431_2.223" vType="DEFAULT_VEHTYPE" speedFactor="0.99" vaporized=""/>
    <tripinfo id="544_4.217" depart="20.00" departLane="2110697#0_0" departPos="98.32" departSpeed="7.60" departDelay="0.00" arrival="153.00" arrivalLane="369977731_0" arrivalPos="101.59" arrivalSpeed="6.77" duration="133.00" routeLength="523.31" waitingTime="49.00" waitingCount="2" stopTime="0.00" timeLoss="63.28" rerouteNo="0" devices="tripinfo_544_4.217" vType="DEFAULT_VEHTYPE" speedFactor="0.91" vaporized=""/>
    <tripinfo id="356_1.1490" depart="12.00" departLane="3792490#0_1" departPos="65.71" departSpeed="8.82" departDelay="0.57" arrival="154.00" arrivalLane="4628796#1_0" arrivalPos="258.84" arrivalSpeed="8.05" duration="142.00" routeLength="735.72" waitingTime="44.00" waitingCount="2" stopTime="0.00" timeLoss="60.44" rerouteNo="0" devices="tripinfo_356_1.1490" vType="DEFAULT_VEHTYPE" speedFactor="1.06" vaporized=""/>
    <tripinfo id="124_3.153" depart="140.00" departLane="-3791031#3_0" departPos="15.78" departSpeed="8.57" departDelay="0.00" arrival="154.00" arrivalLane="-3791031#3_0" arrivalPos="125.07" arrivalSpeed="8.14" duration="14.00" routeLength="109.29" waitingTime="0.00" waitingCount="0" stopTime="0.00" timeLoss="0.90" rerouteNo="0" devices="tripinfo_124_3.153" vType="DEFAULT_VEHTYPE" speedFactor="1.03" vaporized=""/>
    <tripinfo id="357_2.178" depart="32.00" departLane="3792490#0_1" departPos="18.15" departSpeed="9.24" departDelay="0.00" arrival="155.00" arrivalLane="4628796#1_1" arrivalPos="258.84" arrivalSpeed="8.12" duration="123.00" routeLength="783.28" waitingTime="20.00" waitingCount="2" stopTime="0.00" timeLoss="39.86" rerouteNo="0" devices="tripinfo_357_2.178" vType="DEFAULT_VEHTYPE" speedFactor="1.11" vaporized=""/>
    <tripinfo id="543_1.407" depart="50.00" departLane="2110697#0_0" departPos="233.99" departSpeed="9.59" departDelay="0.00" arrival="155.00" arrivalLane="-43321718#3_0" arrivalPos="37.17" arrivalSpeed="8.94" duration="105.00" routeLength="420.17" waitingTime="40.00" waitingCount="2" stopTime="0.00" timeLoss="59.96" rerouteNo="0" devices="tripinfo_543_1.407" vType="DEFAULT_VEHTYPE" speedFactor="1.15" vaporized=""/>
    <tripinfo id="718_3.170" depart="140.00" departLane="317003249#1_0" departPos="71.83" departSpeed="7.13" departDelay="0.00" arrival="162.00" arrivalLane="-43538577#3_0" arrivalPos="66.08" arrivalSpeed="6.86" duration="22.00" routeLength="140.23" waitingTime="0.00" waitingCount="0" stopTime="0.00" timeLoss="2.09" rerouteNo="0" devices="tripinfo_718_3.170" vType="DEFAULT_VEHTYPE" speedFactor="0.86" vaporized=""/>
    <tripinfo id="1087_2.119" depart="80.00" departLane="554991019_0" departPos="61.14" departSpeed="6.29" departDelay="0.00" arrival="165.00" arrivalLane="-43538577#3_0" arrivalPos="66.08" arrivalSpeed="7.09" duration="85.00" routeLength="508.78" waitingTime="6.00" waitingCount="1" stopTime="0.00" timeLoss="17.28" rerouteNo="0" devices="tripinfo_1087_2.119" vType="DEFAULT_VEHTYPE" speedFactor="0.92" vaporized=""/>
    <tripinfo id="1088_3.563" depart="104.00" departLane="554991019_0" departPos="35.77" departSpeed="9.87" departDelay="0.00" arrival="167.00" arrivalLane="-43538577#3_0" arrivalPos="66.08" arrivalSpeed="9.41" duration="63.00" routeLength="534.15" waitingTime="0.00" waitingCount="0" stopTime="0.00" timeLoss="7.76" rerouteNo="0" devices="tripinfo_1088_3.563" vType="DEFAULT_VEHTYPE" speedFactor="1.18" vaporized=""/>
    <tripinfo id="FuelTruck_3" depart="120.00" departLane="-77616869#2_0" departPos="10.10" departSpeed="0.00" departDelay="0.00" arrival="168.00" arrivalLane="-43321718#3_0" arrivalPos="37.17" arrivalSpeed="7.30" duration="48.00" routeLength="294.25" waitingTime="0.00" waitingCount="0" stopTime="0.00" timeLoss="9.14" rerouteNo="0" devices="tripinfo_FuelTruck_3" vType="fueltruck" speedFactor="0.91" vaporized=""/>
    <tripinfo id="356_1.1495" depart="140.00" departLane="3792490#0_0" departPos="106.97" departSpeed="4.14" departDelay="0.00" arrival="169.00" arrivalLane="3792491#0_0" arrivalPos="137.26" arrivalSpeed="7.25" duration="29.00" routeLength="156.13" waitingTime="4.00" waitingCount="1" stopTime="0.00" timeLoss="9.28" rerouteNo="0" devices="tripinfo_356_1.1495" vType="DEFAULT_VEHTYPE" speedFactor="0.97" vaporized=""/>
    <tripinfo id="543_1.406" depart="5.00" departLane="2110697#0_0" departPos="21.74" departSpeed="8.85" departDelay="0.00" arrival="170.00" arrivalLane="8080823#0_0" arrivalPos="112.35" arrivalSpeed="8.22" duration="165.00" routeLength="913.93" waitingTime="49.00" waitingCount="1" stopTime="0.00" timeLoss="61.47" rerouteNo="0" devices="tripinfo_543_1.406" vType="DEFAULT_VEHTYPE" speedFactor="1.06" vaporized=""/>
    <tripinfo id="76_3.136" depart="118.00" departLane="-77616869#2_0" departPos="50.30" departSpeed="8.05" departDelay="0.95" arrival="170.00" arrivalLane="369977731_0" arrivalPos="101.59" arrivalSpeed="7.13" duration="52.00" routeLength="394.77" waitingTime="0.00" waitingCount="0" stopTime="0.00" timeLoss="3.85" rerouteNo="0" devices="tripinfo_76_3.136" vType="DEFAULT_VEHTYPE" speedFactor="0.97" vaporized=""/>
    <tripinfo id="158_2.375" depart="120.00" departLane="-3791745#3_1" departPos="14.53" departSpeed="8.40" departDelay="0.00" arrival="172.00" arrivalLane="-43538577#3_0" arrivalPos="66.08" arrivalSpeed="7.58" duration="52.00" routeLength="152.68" waitingTime="29.00" waitingCount="1" stopTime="0.00" timeLoss="33.74" rerouteNo="0" devices="tripinfo_158_2.375" vType="DEFAULT_VEHTYPE" speedFactor="1.01" vaporized=""/>
    <tripinfo id="634_3.161" depart="140.00" departLane="229823258_0" departPos="4.01" departSpeed="2.79" departDelay="0.00" arrival="172.00" arrivalLane="369977731_0" arrivalPos="101.59" arrivalSpeed="9.52" duration="32.00" routeLength="205.15" waitingTime="1.00" waitingCount="1" stopTime="0.00" timeLoss="10.24" rerouteNo="0" devices="tripinfo_634_3.161" vType="DEFAULT_VEHTYPE" speedFactor="1.15" vaporized=""/>
    <tripinfo id="Trailer_2" depart="120.00" departLane="-3791745#3_0" departPos="10.10" departSpeed="0.00" departDelay="0.00" arrival="178.00" arrivalLane="-43538577#3_0" arrivalPos="66.08" arrivalSpeed="6.91" duration="58.00" routeLength="157.11" waitingTime="28.00" waitingCount="1" stopTime="0.00" timeLoss="39.24" rerouteNo="0" devices="tripinfo_Trailer_2" vType="trailer" speedFactor="1.05" vaporized=""/>
    <tripinfo id="108_3.265" depart="73.00" departLane="22962979_0" departPos="33.87" departSpeed="8.65" departDelay="0.85" arrival="180.00" arrivalLane="128944693#1_0" arrivalPos="29.63" arrivalSpeed="7.84" duration="107.00" routeLength="736.31" waitingTime="4.00" waitingCount="1" stopTime="0.00" timeLoss="19.18" rerouteNo="0" devices="tripinfo_108_3.265" vType="DEFAULT_VEHTYPE" speedFactor="1.04" vaporized=""/>
    <tripinfo id="Trailer_3" depart="121.00" departLane="-3791745#3_1" departPos="10.10" departSpeed="0.00" departDelay="1.00" arrival="180.00" arrivalLane="-43538577#3_0" arrivalPos="66.08" arrivalSpeed="9.02" duration="59.00" routeLength="157.11" waitingTime="27.00" waitingCount="2" stopTime="0.00" timeLoss="42.81" rerouteNo="0" devices="tripinfo_Trailer_3" vType="trailer" speedFactor="1.18" vaporized=""/>
    <tripinfo id="Ambulance_2" depart="120.00" departLane="230483152#0_0" departPos="5.10" departSpeed="0.00" departDelay="0.00" arrival="182.00" arrivalLane="4475731_0" arrivalPos="161.35" arrivalSpeed="6.76" duration="62.00" routeLength="332.25" waitingTime="0.00" waitingCount="0" stopTime="0.00" timeLoss="11.94" rerouteNo="0" devices="tripinfo_Ambulance_2" vType="Ambulance" speedFactor="0.82" vaporized=""/>
    <tripinfo id="Trailer_4" depart="124.00" departLane="-77616869#2_0" departPos="10.10" departSpeed="0.00" departDelay="4.00" arrival="182.00" arrivalLane="-43321718#3_0" arrivalPos="37.17" arrivalSpeed="5.52" duration="58.00" routeLength="294.25" waitingTime="0.00" waitingCount="0" stopTime="0.00" timeLoss="13.50" rerouteNo="0" devices="tripinfo_Trailer_4" vType="trailer" speedFactor="0.78" vaporized=""/>
    <tripinfo id="158_2.376" depart="160.00" departLane="-3791745#3_1" departPos="14.80" departSpeed="9.22" departDelay="0.00" arrival="183.00" arrivalLane="-43538577#3_0" arrivalPos="66.08" arrivalSpeed="8.94" duration="23.00" routeLength="152.41" waitingTime="0.00" waitingCount="0" stopTime="0.00" timeLoss="6.48" rerouteNo="0" devices="tripinfo_158_2.376" vType="DEFAULT_VEHTYPE" speedFactor="1.16" vaporized=""/>
    <tripinfo id="544_4.218" depart="80.00" departLane="2110697#0_0" departPos="0.67" departSpeed="9.08" departDelay="0.00" arrival="185.00" arrivalLane="-43321718#3_0" arrivalPos="37.17" arrivalSpeed="8.72" duration="105.00" routeLength="653.49" waitingTime="18.00" waitingCount="1" stopTime="0.00" timeLoss="31.60" rerouteNo="0" devices="tripinfo_544_4.218" vType="DEFAULT_VEHTYPE" speedFactor="1.09" vaporized=""/>
    <tripinfo id="151_2.343" depart="172.00" departLane="-77616869#2_0" departPos="46.35" departSpeed="8.85" departDelay="0.54" arrival="189.00" arrivalLane="14039609#0_0" arrivalPos="69.48" arrivalSpeed="7.71" duration="17.00" routeLength="127.13" waitingTime="0.00" waitingCount="0" stopTime="0.00" timeLoss="2.36" rerouteNo="0" devices="tripinfo_151_2.343" vType="DEFAULT_VEHTYPE" speedFactor="1.06" vaporized=""/>
    <tripinfo id="28_4.232" depart="159.00" departLane="230483152#0_0" departPos="111.06" departSpeed="8.23" departDelay="0.18" arrival="190.00" arrivalLane="4475731_0" arrivalPos="161.35" arrivalSpeed="7.84" duration="31.00" routeLength="226.29" waitingTime="0.00" waitingCount="0" stopTime="0.00" timeLoss="2.57" rerouteNo="0" devices="tripinfo_28_4.232" vType="DEFAULT_VEHTYPE" speedFactor="0.99" vaporized=""/>
    <tripinfo id="986_3.228" depart="80.00" departLane="4074526#0_0" departPos="199.18" departSpeed="8.18" departDelay="0.00" arrival="194.00" arrivalLane="8080823#0_0" arrivalPos="112.35" arrivalSpeed="8.01" duration="114.00" routeLength="739.78" waitingTime="12.00" waitingCount="1" stopTime="0.00" timeLoss="23.59" rerouteNo="0" devices="tripinfo_986_3.228" vType="DEFAULT_VEHTYPE" speedFactor="0.98" vaporized=""/>
    <tripinfo id="633_2.201" depart="176.00" departLane="229823258_0" departPos="0.98" departSpeed="5.16" departDelay="0.00" arrival="199.00" arrivalLane="369977731_0" arrivalPos="101.59" arrivalSpeed="9.98" duration="23.00" routeLength="208.18" waitingTime="0.00" waitingCount="0" stopTime="0.00" timeLoss="2.22" rerouteNo="0" devices="tripinfo_633_2.201" vType="DEFAULT_VEHTYPE" speedFactor="1.22" vaporized=""/>
    <tripinfo id="543_1.408" depart="95.00" departLane="2110697#0_0" departPos="72.82" departSpeed="7.51" departDelay="0.00" arrival="202.00" arrivalLane="-43321718#3_0" arrivalPos="37.17" arrivalSpeed="7.17" duration="107.00" routeLength="581.34" waitingTime="18.00" waitingCount="1" stopTime="0.00" timeLoss="28.78" rerouteNo="0" devices="tripinfo_543_1.408" vType="DEFAULT_VEHTYPE" speedFactor="0.90" vaporized=""/>
    <tripinfo id="157_1.293" depart="104.00" departLane="3791745#0_1" departPos="10.28" departSpeed="7.50" departDelay="0.00" arrival="202.00" arrivalLane="-238740928#2_0" arrivalPos="59.62" arrivalSpeed="7.49" duration="98.00" routeLength="664.61" waitingTime="0.00" waitingCount="0" stopTime="0.00" timeLoss="8.25" rerouteNo="0" devices="tripinfo_157_1.293" vType="DEFAULT_VEHTYPE" speedFactor="0.90" vaporized=""/>
    <tripinfo id="668_5.613" depart="109.00" departLane="532097269#1.24_0" departPos="40.43" departSpeed="7.41" departDelay="0.56" arrival="203.00" arrivalLane="-43538577#3_0" arrivalPos="66.08" arrivalSpeed="7.28" duration="94.00" routeLength="431.57" waitingTime="26.00" waitingCount="1" stopTime="0.00" timeLoss="34.39" rerouteNo="0" devices="tripinfo_668_5.613" vType="DEFAULT_VEHTYPE" speedFactor="0.89" vaporized=""/>
    <tripinfo id="1086_1.181" depart="140.00" departLane="554991019_0" departPos="49.53" departSpeed="9.23" departDelay="0.00" arrival="205.00" arrivalLane="-43538577#3_0" arrivalPos="66.08" arrivalSpeed="8.47" duration="65.00" routeLength="520.39" waitingTime="0.00" waitingCount="0" stopTime="0.00" timeLoss="7.36" rerouteNo="0" devices="tripinfo_1086_1.181" vType="DEFAULT_VEHTYPE" speedFactor="1.11" vaporized=""/>
    <tripinfo id="635_4.162" depart="178.00" departLane="229823258_0" departPos="1.01" departSpeed="4.50" departDelay="2.00" arrival="206.00" arrivalLane="369977731_0" arrivalPos="101.59" arrivalSpeed="7.66" duration="28.00" routeLength="208.15" waitingTime="0.00" waitingCount="0" stopTime="0.00" timeLoss="2.91" rerouteNo="0" devices="tripinfo_635_4.162" vType="DEFAULT_VEHTYPE" speedFactor="1.01" vaporized=""/>
    <tripinfo id="1088_3.564" depart="140.00" departLane="554991019_0" departPos="35.28" departSpeed="8.10" departDelay="0.00" arrival="207.00" arrivalLane="-43538577#3_0" arrivalPos="66.08" arrivalSpeed="8.63" duration="67.00" routeLength="534.64" waitingTime="0.00" waitingCount="0" stopTime="0.00" timeLoss="7.59" rerouteNo="0" devices="tripinfo_1088_3.564" vType="DEFAULT_VEHTYPE" speedFactor="1.10" vaporized=""/>
    <tripinfo id="693_1.534" depart="160.00" departLane="26545993#0_0" departPos="23.33" departSpeed="8.03" departDelay="0.00" arrival="208.00" arrivalLane="4074531#0_0" arrivalPos="129.52" arrivalSpeed="6.95" duration="48.00" routeLength="243.99" waitingTime="9.00" waitingCount="1" stopTime="0.00" timeLoss="16.71" rerouteNo="0" devices="tripinfo_693_1.534" vType="DEFAULT_VEHTYPE" speedFactor="0.96" vaporized=""/>