<?xml version="1.0" encoding="UTF-8"?>

<!-- generated on 2023-03-14 00:19:24 by Eclipse SUMO GUI Version 1.14.1
<configuration xmlns:xsi="http://www.w3.org/2001/XMLSchema-instance" xsi:noNamespaceSchemaLocation="http://sumo.dlr.de/xsd/sumoConfiguration.xsd">

    <input>
        <net-file value="/Users/gjy/OITSC_Urban/nets/1km/selected1km.net.xml"/>
        <route-files value="/Users/gjy/OITSC_Urban/nets/1km/selected1km_1kSec.rou.xml"/>
    </input>

    <output>
        <tripinfo-output value="ImplicitObservation-QL-tripinfo-proposed-run1.xml"/>
    </output>

    <processing>
        <time-to-teleport value="-1"/>
        <waiting-time-memory value="10000"/>
    </processing>

    <traci_server>
        <remote-port value="63943"/>
    </traci_server>

    <random_number>
        <random value="true"/>
    </random_number>

    <gui_only>
        <quit-on-end value="true"/>
        <start value="true"/>
    </gui_only>

</configuration>
-->

<tripinfos xmlns:xsi="http://www.w3.org/2001/XMLSchema-instance" xsi:noNamespaceSchemaLocation="http://sumo.dlr.de/xsd/tripinfo_file.xsd">
    <tripinfo id="158_2.372" depart="0.00" departLane="-3791745#3_1" departPos="30.95" departSpeed="6.97" departDelay="0.00" arrival="22.00" arrivalLane="-43538577#3_0" arrivalPos="66.08" arrivalSpeed="6.74" duration="22.00" routeLength="136.26" waitingTime="0.00" waitingCount="0" stopTime="0.00" timeLoss="1.56" rerouteNo="0" devices="tripinfo_158_2.372" vType="DEFAULT_VEHTYPE" speedFactor="0.84" vaporized=""/>
    <tripinfo id="643_1.463" depart="24.00" departLane="22962979_0" departPos="34.63" departSpeed="9.41" departDelay="0.22" arrival="57.00" arrivalLane="532427444#4_0" arrivalPos="73.98" arrivalSpeed="9.11" duration="33.00" routeLength="141.28" waitingTime="13.00" waitingCount="1" stopTime="0.00" timeLoss="17.47" rerouteNo="0" devices="tripinfo_643_1.463" vType="DEFAULT_VEHTYPE" speedFactor="1.13" vaporized=""/>
    <tripinfo id="112_3.327" depart="53.00" departLane="43321718#3_0" departPos="25.42" departSpeed="8.04" departDelay="0.79" arrival="61.00" arrivalLane="5976022_0" arrivalPos="2.38" arrivalSpeed="4.94" duration="8.00" routeLength="53.70" waitingTime="0.00" waitingCount="0" stopTime="0.00" timeLoss="1.16" rerouteNo="0" devices="tripinfo_112_3.327" vType="DEFAULT_VEHTYPE" speedFactor="0.97" vaporized=""/>
    <tripinfo id="635_4.160" depart="32.00" departLane="229823258_0" departPos="4.85" departSpeed="1.95" departDelay="0.00" arrival="65.00" arrivalLane="369977731_0" arrivalPos="101.59" arrivalSpeed="6.45" duration="33.00" routeLength="204.31" waitingTime="0.00" waitingCount="0" stopTime="0.00" timeLoss="3.25" rerouteNo="0" devices="tripinfo_635_4.160" vType="DEFAULT_VEHTYPE" speedFactor="0.84" vaporized=""/>
    <tripinfo id="356_1.1491" depart="38.00" departLane="3792490#0_0" departPos="103.49" departSpeed="6.06" departDelay="0.86" arrival="66.00" arrivalLane="3792491#0_0" arrivalPos="137.26" arrivalSpeed="7.01" duration="28.00" routeLength="159.61" waitingTime="3.00" waitingCount="1" stopTime="0.00" timeLoss="7.52" rerouteNo="0" devices="tripinfo_356_1.1491" vType="DEFAULT_VEHTYPE" speedFactor="0.95" vaporized=""/>
    <tripinfo id="693_1.530" depart="0.00" departLane="26545993#0_0" departPos="48.39" departSpeed="6.37" departDelay="0.00" arrival="70.00" arrivalLane="4074531#0_0" arrivalPos="129.52" arrivalSpeed="5.67" duration="70.00" routeLength="218.93" waitingTime="29.00" waitingCount="1" stopTime="0.00" timeLoss="35.15" rerouteNo="0" devices="tripinfo_693_1.530" vType="DEFAULT_VEHTYPE" speedFactor="0.76" vaporized=""/>
    <tripinfo id="115_2.389" depart="40.00" departLane="43321718#3_0" departPos="10.43" departSpeed="7.21" departDelay="0.59" arrival="70.00" arrivalLane="42636056_0" arrivalPos="44.42" arrivalSpeed="6.75" duration="30.00" routeLength="201.51" waitingTime="0.00" waitingCount="0" stopTime="0.00" timeLoss="2.44" rerouteNo="0" devices="tripinfo_115_2.389" vType="DEFAULT_VEHTYPE" speedFactor="0.87" vaporized=""/>
    <tripinfo id="718_3.169" depart="50.00" departLane="317003249#1_0" departPos="46.64" departSpeed="8.62" departDelay="0.00" arrival="71.00" arrivalLane="-43538577#3_0" arrivalPos="66.08" arrivalSpeed="7.33" duration="21.00" routeLength="165.42" waitingTime="0.00" waitingCount="0" stopTime="0.00" timeLoss="1.26" rerouteNo="0" devices="tripinfo_718_3.169" vType="DEFAULT_VEHTYPE" speedFactor="1.03" vaporized=""/>
    <tripinfo id="634_3.160" depart="50.00" departLane="229823258_0" departPos="1.24" departSpeed="5.03" departDelay="0.00" arrival="75.00" arrivalLane="369977731_0" arrivalPos="101.59" arrivalSpeed="8.16" duration="25.00" routeLength="207.92" waitingTime="0.00" waitingCount="0" stopTime="0.00" timeLoss="2.30" rerouteNo="0" devices="tripinfo_634_3.160" vType="DEFAULT_VEHTYPE" speedFactor="1.10" vaporized=""/>
    <tripinfo id="113_4.864" depart="47.00" departLane="22962979_0" departPos="54.37" departSpeed="8.43" departDelay="0.93" arrival="76.00" arrivalLane="14152308_0" arrivalPos="25.16" arrivalSpeed="8.20" duration="29.00" routeLength="211.92" waitingTime="0.00" waitingCount="0" stopTime="0.00" timeLoss="3.23" rerouteNo="0" devices="tripinfo_113_4.864" vType="DEFAULT_VEHTYPE" speedFactor="1.01" vaporized=""/>
    <tripinfo id="503_5.745" depart="36.00" departLane="43321718#3_0" departPos="20.01" departSpeed="8.79" departDelay="0.91" arrival="87.00" arrivalLane="8080823#0_0" arrivalPos="112.35" arrivalSpeed="8.37" duration="51.00" routeLength="414.27" waitingTime="0.00" waitingCount="0" stopTime="0.00" timeLoss="4.38" rerouteNo="0" devices="tripinfo_503_5.745" vType="DEFAULT_VEHTYPE" speedFactor="1.05" vaporized=""/>
    <tripinfo id="645_5.942" depart="72.00" departLane="22962979_0" departPos="78.52" departSpeed="5.31" departDelay="0.22" arrival="89.00" arrivalLane="532427444#4_0" arrivalPos="73.98" arrivalSpeed="6.09" duration="17.00" routeLength="97.39" waitingTime="0.00" waitingCount="0" stopTime="0.00" timeLoss="1.60" rerouteNo="0" devices="tripinfo_645_5.942" vType="DEFAULT_VEHTYPE" speedFactor="0.82" vaporized=""/>
    <tripinfo id="356_1.1492" depart="63.00" departLane="3792490#0_0" departPos="23.06" departSpeed="7.75" departDelay="0.14" arrival="97.00" arrivalLane="3792491#0_0" arrivalPos="137.26" arrivalSpeed="7.30" duration="34.00" routeLength="240.04" waitingTime="0.00" waitingCount="0" stopTime="0.00" timeLoss="2.67" rerouteNo="0" devices="tripinfo_356_1.1492" vType="DEFAULT_VEHTYPE" speedFactor="0.93" vaporized=""/>
    <tripinfo id="28_4.231" depart="69.00" departLane="230483152#0_0" departPos="117.54" departSpeed="7.47" departDelay="0.18" arrival="102.00" arrivalLane="4475731_0" arrivalPos="161.35" arrivalSpeed="6.59" duration="33.00" routeLength="219.81" waitingTime="0.00" waitingCount="0" stopTime="0.00" timeLoss="2.77" rerouteNo="0" devices="tripinfo_28_4.231" vType="DEFAULT_VEHTYPE" speedFactor="0.90" vaporized=""/>
    <tripinfo id="158_2.373" depart="40.00" departLane="-3791745#3_1" departPos="12.60" departSpeed="9.75" departDelay="0.00" arrival="103.00" arrivalLane="-43538577#3_0" arrivalPos="66.08" arrivalSpeed="9.54" duration="63.00" routeLength="154.61" waitingTime="42.00" waitingCount="1" stopTime="0.00" timeLoss="46.80" rerouteNo="0" devices="tripinfo_158_2.373" vType="DEFAULT_VEHTYPE" speedFactor="1.17" vaporized=""/>
    <tripinfo id="462_7.356" depart="53.00" departLane="43321718#3_0" departPos="12.77" departSpeed="6.59" departDelay="0.53" arrival="103.00" arrivalLane="38192815_0" arrivalPos="87.29" arrivalSpeed="6.44" duration="50.00" routeLength="295.52" waitingTime="0.00" waitingCount="0" stopTime="0.00" timeLoss="8.46" rerouteNo="0" devices="tripinfo_462_7.356" vType="DEFAULT_VEHTYPE" speedFactor="0.86" vaporized=""/>
    <tripinfo id="361_5.170" depart="72.00" departLane="3791031#0_1" departPos="101.98" departSpeed="9.01" departDelay="0.56" arrival="108.00" arrivalLane="4074531#0_1" arrivalPos="129.52" arrivalSpeed="7.79" duration="36.00" routeLength="162.84" waitingTime="14.00" waitingCount="1" stopTime="0.00" timeLoss="17.35" rerouteNo="0" devices="tripinfo_361_5.170" vType="DEFAULT_VEHTYPE" speedFactor="1.08" vaporized=""/>
    <tripinfo id="158_2.374" depart="80.00" departLane="-3791745#3_1" departPos="17.95" departSpeed="8.19" departDelay="0.00" arrival="108.00" arrivalLane="-43538577#3_0" arrivalPos="66.08" arrivalSpeed="7.21" duration="28.00" routeLength="149.26" waitingTime="3.00" waitingCount="1" stopTime="0.00" timeLoss="8.93" rerouteNo="0" devices="tripinfo_158_2.374" vType="DEFAULT_VEHTYPE" speedFactor="0.98" vaporized=""/>
    <tripinfo id="693_1.532" depart="80.00" departLane="26545993#0_0" departPos="90.15" departSpeed="6.89" departDelay="0.00" arrival="109.00" arrivalLane="4074531#0_0" arrivalPos="129.52" arrivalSpeed="5.86" duration="29.00" routeLength="177.17" waitingTime="0.00" waitingCount="0" stopTime="0.00" timeLoss="2.97" rerouteNo="0" devices="tripinfo_693_1.532" vType="DEFAULT_VEHTYPE" speedFactor="0.83" vaporized=""/>
    <tripinfo id="632_1.168" depart="80.00" departLane="229823258_0" departPos="4.41" departSpeed="2.39" departDelay="0.00" arrival="109.00" arrivalLane="369977731_0" arrivalPos="101.59" arrivalSpeed="6.85" duration="29.00" routeLength="204.75" waitingTime="0.00" waitingCount="0" stopTime="0.00" timeLoss="2.98" rerouteNo="0" devices="tripinfo_632_1.168" vType="DEFAULT_VEHTYPE" speedFactor="0.96" vaporized=""/>
    <tripinfo id="543_1.406" depart="5.00" departLane="2110697#0_0" departPos="146.92" departSpeed="8.30" departDelay="0.00" arrival="110.00" arrivalLane="8080823#0_0" arrivalPos="112.35" arrivalSpeed="7.71" duration="105.00" routeLength="788.75" waitingTime="0.00" waitingCount="0" stopTime="0.00" timeLoss="9.53" rerouteNo="0" devices="tripinfo_543_1.406" vType="DEFAULT_VEHTYPE" speedFactor="1.00" vaporized=""/>
    <tripinfo id="240_2.161" depart="71.00" departLane="3791031#0_0" departPos="95.59" departSpeed="8.43" departDelay="0.22" arrival="110.00" arrivalLane="4074531#0_1" arrivalPos="129.52" arrivalSpeed="7.54" duration="39.00" routeLength="175.16" waitingTime="14.00" waitingCount="1" stopTime="0.00" timeLoss="18.12" rerouteNo="0" devices="tripinfo_240_2.161" vType="DEFAULT_VEHTYPE" speedFactor="1.01" vaporized=""/>
    <tripinfo id="171_3.429" depart="85.00" departLane="43321718#3_0" departPos="1.61" departSpeed="8.43" departDelay="0.44" arrival="124.00" arrivalLane="77616869#0_0" arrivalPos="90.89" arrivalSpeed="8.41" duration="39.00" routeLength="307.89" waitingTime="0.00" waitingCount="0" stopTime="0.00" timeLoss="3.34" rerouteNo="0" devices="tripinfo_171_3.429" vType="DEFAULT_VEHTYPE" speedFactor="1.01" vaporized=""/>
    <tripinfo id="79_6.174" depart="88.00" departLane="-77616869#2_0" departPos="4.40" departSpeed="8.89" departDelay="0.95" arrival="125.00" arrivalLane="-43321718#3_0" arrivalPos="37.17" arrivalSpeed="8.09" duration="37.00" routeLength="299.95" waitingTime="0.00" waitingCount="0" stopTime="0.00" timeLoss="3.48" rerouteNo="0" devices="tripinfo_79_6.174" vType="DEFAULT_VEHTYPE" speedFactor="1.07" vaporized=""/>
    <tripinfo id="72_5.400" depart="47.00" departLane="22962979_0" departPos="76.96" departSpeed="8.19" departDelay="0.17" arrival="126.00" arrivalLane="8080823#0_0" arrivalPos="112.35" arrivalSpeed="7.21" duration="79.00" routeLength="593.38" waitingTime="0.00" waitingCount="0" stopTime="0.00" timeLoss="6.85" rerouteNo="0" devices="tripinfo_72_5.400" vType="DEFAULT_VEHTYPE" speedFactor="0.99" vaporized=""/>
    <tripinfo id="358_1.145" depart="102.00" departLane="3791031#0_0" departPos="76.87" departSpeed="7.87" departDelay="0.56" arrival="129.00" arrivalLane="4074531#0_0" arrivalPos="129.52" arrivalSpeed="7.71" duration="27.00" routeLength="193.88" waitingTime="0.00" waitingCount="0" stopTime="0.00" timeLoss="2.11" rerouteNo="0" devices="tripinfo_358_1.145" vType="DEFAULT_VEHTYPE" speedFactor="0.95" vaporized=""/>
    <tripinfo id="694_3.172" depart="80.00" departLane="26545993#0_0" departPos="39.67" departSpeed="9.53" departDelay="0.00" arrival="131.00" arrivalLane="4074531#0_0" arrivalPos="129.52" arrivalSpeed="8.39" duration="51.00" routeLength="227.65" waitingTime="21.00" waitingCount="1" stopTime="0.00" timeLoss="26.84" rerouteNo="0" devices="tripinfo_694_3.172" vType="DEFAULT_VEHTYPE" speedFactor="1.14" vaporized=""/>
    <tripinfo id="1274_2.129" depart="10.00" departLane="4472590#0_1" departPos="68.60" departSpeed="7.50" departDelay="0.78" arrival="133.00" arrivalLane="-43321718#3_0" arrivalPos="37.17" arrivalSpeed="7.37" duration="123.00" routeLength="841.53" waitingTime="0.00" waitingCount="0" stopTime="0.00" timeLoss="11.48" rerouteNo="0" devices="tripinfo_1274_2.129" vType="DEFAULT_VEHTYPE" speedFactor="0.90" vaporized=""/>
    <tripinfo id="501_2.401" depart="66.00" departLane="43321718#3_0" departPos="14.23" departSpeed="7.60" departDelay="0.12" arrival="135.00" arrivalLane="8080823#0_0" arrivalPos="112.35" arrivalSpeed="7.21" duration="69.00" routeLength="420.05" waitingTime="5.00" waitingCount="1" stopTime="0.00" timeLoss="14.47" rerouteNo="0" devices="tripinfo_501_2.401" vType="DEFAULT_VEHTYPE" speedFactor="0.91" vaporized=""/>
    <tripinfo id="1273_1.313" depart="10.00" departLane="4472590#0_1" departPos="38.71" departSpeed="7.57" departDelay="0.78" arrival="139.00" arrivalLane="-43321718#3_0" arrivalPos="37.17" arrivalSpeed="6.77" duration="129.00" routeLength="871.42" waitingTime="0.00" waitingCount="0" stopTime="0.00" timeLoss="14.72" rerouteNo="0" devices="tripinfo_1273_1.313" vType="DEFAULT_VEHTYPE" speedFactor="0.91" vaporized=""/>
    <tripinfo id="633_2.200" depart="104.00" departLane="229823258_0" departPos="6.77" departSpeed="0.03" departDelay="0.00" arrival="139.00" arrivalLane="369977731_0" arrivalPos="101.59" arrivalSpeed="6.80" duration="35.00" routeLength="202.39" waitingTime="0.00" waitingCount="0" stopTime="0.00" timeLoss="4.51" rerouteNo="0" devices="tripinfo_633_2.200" vType="DEFAULT_VEHTYPE" speedFactor="0.82" vaporized=""/>
    <tripinfo id="158_2.375" depart="120.00" departLane="-3791745#3_1" departPos="37.75" departSpeed="7.86" departDelay="0.00" arrival="139.00" arrivalLane="-43538577#3_0" arrivalPos="66.08" arrivalSpeed="7.78" duration="19.00" routeLength="129.46" waitingTime="0.00" waitingCount="0" stopTime="0.00" timeLoss="1.59" rerouteNo="0" devices="tripinfo_158_2.375" vType="DEFAULT_VEHTYPE" speedFactor="0.94" vaporized=""/>
    <tripinfo id="645_5.944" depart="133.00" departLane="43321718#3_0" departPos="11.47" departSpeed="8.70" departDelay="0.65" arrival="139.00" arrivalLane="43321722_0" arrivalPos="14.17" arrivalSpeed="8.24" duration="6.00" routeLength="47.70" waitingTime="0.00" waitingCount="0" stopTime="0.00" timeLoss="0.44" rerouteNo="0" devices="tripinfo_645_5.944" vType="DEFAULT_VEHTYPE" speedFactor="1.04" vaporized=""/>
    <tripinfo id="Trailer_0" depart="120.00" departLane="-3791031#3_0" departPos="10.10" departSpeed="0.00" departDelay="0.00" arrival="140.00" arrivalLane="-3791031#3_0" arrivalPos="125.07" arrivalSpeed="7.87" duration="20.00" routeLength="114.97" waitingTime="0.00" waitingCount="0" stopTime="0.00" timeLoss="5.41" rerouteNo="0" devices="tripinfo_Trailer_0" vType="trailer" speedFactor="0.96" vaporized=""/>
    <tripinfo id="402_3.706" depart="102.00" departLane="43321718#3_0" departPos="13.89" departSpeed="8.35" departDelay="0.73" arrival="141.00" arrivalLane="369977731_0" arrivalPos="101.59" arrivalSpeed="8.26" duration="39.00" routeLength="268.35" waitingTime="0.00" waitingCount="0" stopTime="0.00" timeLoss="6.17" rerouteNo="0" devices="tripinfo_402_3.706" vType="DEFAULT_VEHTYPE" speedFactor="1.00" vaporized=""/>
    <tripinfo id="125_4.118" depart="140.00" departLane="-3791031#3_0" departPos="114.72" departSpeed="7.16" departDelay="0.00" arrival="142.00" arrivalLane="-3791031#3_0" arrivalPos="125.07" arrivalSpeed="6.78" duration="2.00" routeLength="10.35" waitingTime="0.00" waitingCount="0" stopTime="0.00" timeLoss="0.10" rerouteNo="0" devices="tripinfo_125_4.118" vType="DEFAULT_VEHTYPE" speedFactor="0.86" vaporized=""/>
    <tripinfo id="25_1.90" depart="99.00" departLane="230483152#0_0" departPos="49.18" departSpeed="7.45" departDelay="0.18" arrival="143.00" arrivalLane="4475731_0" arrivalPos="161.35" arrivalSpeed="6.19" duration="44.00" routeLength="288.17" waitingTime="0.00" waitingCount="0" stopTime="0.00" timeLoss="4.24" rerouteNo="0" devices="tripinfo_25_1.90" vType="DEFAULT_VEHTYPE" speedFactor="0.89" vaporized=""/>
    <tripinfo id="635_4.161" depart="105.00" departLane="229823258_0" departPos="0.38" departSpeed="0.98" departDelay="1.00" arrival="143.00" arrivalLane="369977731_0" arrivalPos="101.59" arrivalSpeed="9.67" duration="38.00" routeLength="208.78" waitingTime="4.00" waitingCount="1" stopTime="0.00" timeLoss="18.15" rerouteNo="0" devices="tripinfo_635_4.161" vType="DEFAULT_VEHTYPE" speedFactor="1.31" vaporized=""/>
    <tripinfo id="124_3.153" depart="140.00" departLane="-3791031#3_0" departPos="66.44" departSpeed="7.36" departDelay="0.00" arrival="149.00" arrivalLane="-3791031#3_0" arrivalPos="125.07" arrivalSpeed="6.80" duration="9.00" routeLength="58.63" waitingTime="0.00" waitingCount="0" stopTime="0.00" timeLoss="0.95" rerouteNo="0" devices="tripinfo_124_3.153" vType="DEFAULT_VEHTYPE" speedFactor="0.88" vaporized=""/>
    <tripinfo id="431_2.223" depart="13.00" departLane="4472590#0_1" departPos="38.37" departSpeed="8.48" departDelay="0.77" arrival="157.00" arrivalLane="369977731_0" arrivalPos="101.59" arrivalSpeed="8.06" duration="144.00" routeLength="1007.69" waitingTime="0.00" waitingCount="0" stopTime="0.00" timeLoss="25.31" rerouteNo="0" devices="tripinfo_431_2.223" vType="DEFAULT_VEHTYPE" speedFactor="1.02" vaporized=""/>
    <tripinfo id="356_1.1490" depart="12.00" departLane="3792490#0_1" departPos="7.00" departSpeed="7.59" departDelay="0.57" arrival="161.00" arrivalLane="4628796#1_0" arrivalPos="258.84" arrivalSpeed="6.63" duration="149.00" routeLength="794.43" waitingTime="28.00" waitingCount="2" stopTime="0.00" timeLoss="46.52" rerouteNo="0" devices="tripinfo_356_1.1490" vType="DEFAULT_VEHTYPE" speedFactor="0.91" vaporized=""/>
    <tripinfo id="357_2.178" depart="32.00" departLane="3792490#0_1" departPos="35.34" departSpeed="7.80" departDelay="0.00" arrival="162.00" arrivalLane="4628796#1_1" arrivalPos="258.84" arrivalSpeed="7.73" duration="130.00" routeLength="766.09" waitingTime="12.00" waitingCount="2" stopTime="0.00" timeLoss="33.80" rerouteNo="0" devices="tripinfo_357_2.178" vType="DEFAULT_VEHTYPE" speedFactor="0.94" vaporized=""/>
    <tripinfo id="544_4.217" depart="20.00" departLane="2110697#0_0" departPos="90.44" departSpeed="8.23" departDelay="0.00" arrival="165.00" arrivalLane="369977731_0" arrivalPos="101.59" arrivalSpeed="7.39" duration="145.00" routeLength="531.19" waitingTime="68.00" waitingCount="2" stopTime="0.00" timeLoss="79.24" rerouteNo="0" devices="tripinfo_544_4.217" vType="DEFAULT_VEHTYPE" speedFactor="0.99" vaporized=""/>
    <tripinfo id="718_3.170" depart="140.00" departLane="317003249#1_0" departPos="36.48" departSpeed="7.78" departDelay="0.00" arrival="165.00" arrivalLane="-43538577#3_0" arrivalPos="66.08" arrivalSpeed="6.90" duration="25.00" routeLength="175.58" waitingTime="0.00" waitingCount="0" stopTime="0.00" timeLoss="1.97" rerouteNo="0" devices="tripinfo_718_3.170" vType="DEFAULT_VEHTYPE" speedFactor="0.93" vaporized=""/>
    <tripinfo id="1087_2.119" depart="80.00" departLane="554991019_0" departPos="4.92" departSpeed="8.39" departDelay="0.00" arrival="167.00" arrivalLane="-43538577#3_0" arrivalPos="66.08" arrivalSpeed="7.13" duration="87.00" routeLength="565.00" waitingTime="0.00" waitingCount="0" stopTime="0.00" timeLoss="18.51" rerouteNo="0" devices="tripinfo_1087_2.119" vType="DEFAULT_VEHTYPE" speedFactor="1.01" vaporized=""/>
    <tripinfo id="356_1.1495" depart="140.00" departLane="3792490#0_0" departPos="74.86" departSpeed="7.87" departDelay="0.00" arrival="167.00" arrivalLane="3792491#0_0" arrivalPos="137.26" arrivalSpeed="6.94" duration="27.00" routeLength="188.24" waitingTime="0.00" waitingCount="0" stopTime="0.00" timeLoss="2.44" rerouteNo="0" devices="tripinfo_356_1.1495" vType="DEFAULT_VEHTYPE" speedFactor="0.94" vaporized=""/>
    <tripinfo id="Ambulance_4" depart="120.00" departLane="230483152#0_0" departPos="5.10" departSpeed="0.00" departDelay="0.00" arrival="168.00" arrivalLane="4475731_0" arrivalPos="161.35" arrivalSpeed="6.68" duration="48.00" routeLength="332.25" waitingTime="0.00" waitingCount="0" stopTime="0.00" timeLoss="8.77" rerouteNo="0" devices="tripinfo_Ambulance_4" vType="Ambulance" speedFactor="1.04" vaporized=""/>
    <tripinfo id="668_5.613" depart="109.00" departLane="532097269#1.24_0" departPos="10.04" departSpeed="9.07" departDelay="0.56" arrival="169.00" arrivalLane="-43538577#3_0" arrivalPos="66.08" arrivalSpeed="7.78" duration="60.00" routeLength="461.96" waitingTime="0.00" waitingCount="0" stopTime="0.00" timeLoss="7.90" rerouteNo="0" devices="tripinfo_668_5.613" vType="DEFAULT_VEHTYPE" speedFactor="1.09" vaporized=""/>
    <tripinfo id="627_1.949" depart="111.00" departLane="43321718#3_0" departPos="14.37" departSpeed="9.45" departDelay="0.29" arrival="173.00" arrivalLane="8080823#0_0" arrivalPos="112.35" arrivalSpeed="8.88" duration="62.00" routeLength="419.91" waitingTime="7.00" waitingCount="1" stopTime="0.00" timeLoss="17.36" rerouteNo="0" devices="tripinfo_627_1.949" vType="DEFAULT_VEHTYPE" speedFactor="1.13" vaporized=""/>
    <tripinfo id="76_3.136" depart="118.00" departLane="-77616869#2_0" departPos="65.79" departSpeed="7.33" departDelay="0.95" arrival="174.00" arrivalLane="369977731_0" arrivalPos="101.59" arrivalSpeed="6.69" duration="56.00" routeLength="379.28" waitingTime="0.00" waitingCount="0" stopTime="0.00" timeLoss="5.47" rerouteNo="0" devices="tripinfo_76_3.136" vType="DEFAULT_VEHTYPE" speedFactor="0.88" vaporized=""/>
    <tripinfo id="634_3.161" depart="140.00" departLane="229823258_0" departPos="5.36" departSpeed="1.44" departDelay="0.00" arrival="176.00" arrivalLane="369977731_0" arrivalPos="101.59" arrivalSpeed="8.11" duration="36.00" routeLength="203.80" waitingTime="3.00" waitingCount="1" stopTime="0.00" timeLoss="11.94" rerouteNo="0" devices="tripinfo_634_3.161" vType="DEFAULT_VEHTYPE" speedFactor="1.02" vaporized=""/>
    <tripinfo id="543_1.407" depart="50.00" departLane="2110697#0_0" departPos="140.45" departSpeed="7.07" departDelay="0.00" arrival="177.00" arrivalLane="-43321718#3_0" arrivalPos="37.17" arrivalSpeed="6.24" duration="127.00" routeLength="513.71" waitingTime="39.00" waitingCount="2" stopTime="0.00" timeLoss="52.31" rerouteNo="0" devices="tripinfo_543_1.407" vType="DEFAULT_VEHTYPE" speedFactor="0.85" vaporized=""/>
    <tripinfo id="Ambulance_1" depart="120.00" departLane="230483152#0_1" departPos="5.10" departSpeed="0.00" departDelay="0.00" arrival="177.00" arrivalLane="4475731_0" arrivalPos="161.35" arrivalSpeed="5.86" duration="57.00" routeLength="332.25" waitingTime="0.00" waitingCount="0" stopTime="0.00" timeLoss="12.71" rerouteNo="0" devices="tripinfo_Ambulance_1" vType="Ambulance" speedFactor="0.91" vaporized=""/>
    <tripinfo id="544_4.218" depart="80.00" departLane="2110697#0_0" departPos="214.07" departSpeed="7.94" departDelay="0.00" arrival="179.00" arrivalLane="-43321718#3_0" arrivalPos="37.17" arrivalSpeed="7.02" duration="99.00" routeLength="440.09" waitingTime="22.00" waitingCount="1" stopTime="0.00" timeLoss="42.85" rerouteNo="0" devices="tripinfo_544_4.218" vType="DEFAULT_VEHTYPE" speedFactor="0.95" vaporized=""/>
    <tripinfo id="Trailer_4" depart="125.00" departLane="230483152#0_1" departPos="10.10" departSpeed="0.00" departDelay="5.00" arrival="180.00" arrivalLane="4475731_0" arrivalPos="161.35" arrivalSpeed="5.49" duration="55.00" routeLength="327.25" waitingTime="0.00" waitingCount="0" stopTime="0.00" timeLoss="13.23" rerouteNo="0" devices="tripinfo_Trailer_4" vType="trailer" speedFactor="0.96" vaporized=""/>
    <tripinfo id="543_1.408" depart="95.00" departLane="2110697#0_0" departPos="160.24" departSpeed="8.04" departDelay="0.00" arrival="181.00" arrivalLane="-43321718#3_0" arrivalPos="37.17" arrivalSpeed="7.51" duration="86.00" routeLength="493.92" waitingTime="9.00" waitingCount="1" stopTime="0.00" timeLoss="23.28" rerouteNo="0" devices="tripinfo_543_1.408" vType="DEFAULT_VEHTYPE" speedFactor="0.97" vaporized=""/>
    <tripinfo id="Ambulance_3" depart="120.00" departLane="43321718#3_0" departPos="5.10" departSpeed="0.00" departDelay="0.00" arrival="182.00" arrivalLane="14039614_0" arrivalPos="29.87" arrivalSpeed="7.38" duration="62.00" routeLength="378.69" waitingTime="0.00" waitingCount="0" stopTime="0.00" timeLoss="17.06" rerouteNo="0" devices="tripinfo_Ambulance_3" vType="Ambulance" speedFactor="1.00" vaporized=""/>
    <tripinfo id="Trailer_1" depart="120.00" departLane="-15464769#0_0" departPos="10.10" departSpeed="0.00" departDelay="0.00" arrival="183.00" arrivalLane="16309917#0_0" arrivalPos="85.84" arrivalSpeed="5.57" duration="63.00" routeLength="269.07" waitingTime="11.00" waitingCount="1" stopTime="0.00" timeLoss="26.49" rerouteNo="0" devices="tripinfo_Trailer_1" vType="trailer" speedFactor="0.90" vaporized=""/>
    <tripinfo id="1088_3.563" depart="104.00" departLane="554991019_0" departPos="3.85" departSpeed="9.30" departDelay="0.00" arrival="184.00" arrivalLane="-43538577#3_0" arrivalPos="66.08" arrivalSpeed="8.35" duration="80.00" routeLength="566.07" waitingTime="8.00" waitingCount="1" stopTime="0.00" timeLoss="18.38" rerouteNo="0" devices="tripinfo_1088_3.563" vType="DEFAULT_VEHTYPE" speedFactor="1.12" vaporized=""/>
    <tripinfo id="693_1.534" depart="160.00" departLane="26545993#0_0" departPos="63.89" departSpeed="8.83" departDelay="0.00" arrival="186.00" arrivalLane="4074531#0_0" arrivalPos="129.52" arrivalSpeed="8.44" duration="26.00" routeLength="203.43" waitingTime="0.00" waitingCount="0" stopTime="0.00" timeLoss="1.98" rerouteNo="0" devices="tripinfo_693_1.534" vType="DEFAULT_VEHTYPE" speedFactor="1.06" vaporized=""/>
    <tripinfo id="108_3.265" depart="73.00" departLane="22962979_0" departPos="0.87" departSpeed="8.35" departDelay="0.85" arrival="190.00" arrivalLane="128944693#1_0" arrivalPos="29.63" arrivalSpeed="7.19" duration="117.00" routeLength="769.31" waitingTime="2.00" waitingCount="1" stopTime="0.00" timeLoss="21.44" rerouteNo="0" devices="tripinfo_108_3.265" vType="DEFAULT_VEHTYPE" speedFactor="1.00" vaporized=""/>
    <tripinfo id="28_4.232" depart="159.00" departLane="230483152#0_0" departPos="90.88" departSpeed="8.95" departDelay="0.18" arrival="190.00" arrivalLane="4475731_0" arrivalPos="161.35" arrivalSpeed="8.23" duration="31.00" routeLength="246.47" waitingTime="0.00" waitingCount="0" stopTime="0.00" timeLoss="2.43" rerouteNo="0" devices="tripinfo_28_4.232" vType="DEFAULT_VEHTYPE" speedFactor="1.07" vaporized=""/>
    <tripinfo id="543_1.409" depart="140.00" departLane="2110697#0_0" departPos="281.04" departSpeed="8.47" departDelay="0.00" arrival="191.00" arrivalLane="-43321718#3_0" arrivalPos="37.17" arrivalSpeed="7.97" duration="51.00" routeLength="373.12" waitingTime="0.00" waitingCount="0" stopTime="0.00" timeLoss="6.28" rerouteNo="0" devices="tripinfo_543_1.409" vType="DEFAULT_VEHTYPE" speedFactor="1.02" vaporized=""/>
    <tripinfo id="115_2.391" depart="152.00" departLane="43321718#3_0" departPos="20.37" departSpeed="8.70" departDelay="0.59" arrival="191.00" arrivalLane="77616869#0_0" arrivalPos="90.89" arrivalSpeed="8.51" duration="39.00" routeLength="289.13" waitingTime="0.00" waitingCount="0" stopTime="0.00" timeLoss="6.27" rerouteNo="0" devices="tripinfo_115_2.391" vType="DEFAULT_VEHTYPE" speedFactor="1.04" vaporized=""/>
    <tripinfo id="151_2.343" depart="172.00" departLane="-77616869#2_0" departPos="32.91" departSpeed="8.57" departDelay="0.54" arrival="191.00" arrivalLane="14039609#0_0" arrivalPos="69.48" arrivalSpeed="7.47" duration="19.00" routeLength="140.57" waitingTime="0.00" waitingCount="0" stopTime="0.00" timeLoss="1.84" rerouteNo="0" devices="tripinfo_151_2.343" vType="DEFAULT_VEHTYPE" speedFactor="1.03" vaporized=""/>
    <tripinfo id="70_1.497" depart="86.00" departLane="22962979_0" departPos="29.74" departSpeed="8.18" departDelay="0.99" arrival="199.00" arrivalLane="8080823#0_0" arrivalPos="112.35" arrivalSpeed="6.90" duration="113.00" routeLength="640.60" waitingTime="23.00" waitingCount="1" stopTime="0.00" timeLoss="34.99" rerouteNo="0" devices="tripinfo_70_1.497" vType="DEFAULT_VEHTYPE" speedFactor="0.98" vaporized=""/>
    <tripinfo id="158_2.376" depart="160.00" departLane="-3791745#3_1" departPos="14.54" departSpeed="7.82" departDelay="0.00" arrival="200.00" arrivalLane="-43538577#3_0" arrivalPos="66.08" arrivalSpeed="7.16" duration="40.00" routeLength="152.67" waitingTime="14.00" waitingCount="1" stopTime="0.00" timeLoss="19.87" rerouteNo="0" devices="tripinfo_158_2.376" vType="DEFAULT_VEHTYPE" speedFactor="0.94" vaporized=""/>
    <tripinfo id="72_5.401" depart="107.00" departLane="22962979_0" departPos="2.14" departSpeed="8.33" departDelay="0.17" arrival="201.00" arrivalLane="8080823#0_0" arrivalPos="112.35" arrivalSpeed="7.78" duration="94.00" routeLength="668.20" waitingTime="1.00" waitingCount="1" stopTime="0.00" timeLoss="14.65" rerouteNo="0" devices="tripinfo_72_5.401" vType="DEFAULT_VEHTYPE" speedFactor="1.00" vaporized=""/>
    <tripinfo id="633_2.201" depart="176.00" departLane="229823258_0" departPos="4.92" departSpeed="1.88" departDelay="0.00" arrival="201.00" arrivalLane="369977731_0" arrivalPos="101.59" arrivalSpeed="8.71" duration="25.00" routeLength="204.24" waitingTime="0.00" waitingCount="0" stopTime="0.00" timeLoss="2.55" rerouteNo="0" devices="tripinfo_633_2.201" vType="DEFAULT_VEHTYPE" speedFactor="1.13" vaporized=""/>