<?xml version="1.0" encoding="UTF-8"?>

<!-- generated on 2023-03-14 02:24:34 by Eclipse SUMO GUI Version 1.14.1
<configuration xmlns:xsi="http://www.w3.org/2001/XMLSchema-instance" xsi:noNamespaceSchemaLocation="http://sumo.dlr.de/xsd/sumoConfiguration.xsd">

    <input>
        <net-file value="/Users/gjy/OITSC_Urban/nets/1km/selected1km.net.xml"/>
        <route-files value="/Users/gjy/OITSC_Urban/nets/1km/selected1km_1kSec.rou.xml"/>
    </input>

    <output>
        <tripinfo-output value="SampleObservation-QL-tripinfo-baseline-run1.xml"/>
    </output>

    <processing>
        <time-to-teleport value="-1"/>
        <waiting-time-memory value="10000"/>
    </processing>

    <traci_server>
        <remote-port value="65301"/>
    </traci_server>

    <random_number>
        <random value="true"/>
    </random_number>

    <gui_only>
        <quit-on-end value="true"/>
        <start value="true"/>
    </gui_only>

</configuration>
-->

<tripinfos xmlns:xsi="http://www.w3.org/2001/XMLSchema-instance" xsi:noNamespaceSchemaLocation="http://sumo.dlr.de/xsd/tripinfo_file.xsd">
    <tripinfo id="158_2.372" depart="0.00" departLane="-3791745#3_1" departPos="45.74" departSpeed="8.45" departDelay="0.00" arrival="16.00" arrivalLane="-43538577#3_0" arrivalPos="66.08" arrivalSpeed="7.22" duration="16.00" routeLength="121.47" waitingTime="0.00" waitingCount="0" stopTime="0.00" timeLoss="1.57" rerouteNo="0" devices="tripinfo_158_2.372" vType="DEFAULT_VEHTYPE" speedFactor="1.01" vaporized=""/>
    <tripinfo id="643_1.463" depart="24.00" departLane="22962979_0" departPos="2.30" departSpeed="9.04" departDelay="0.22" arrival="58.00" arrivalLane="532427444#4_0" arrivalPos="73.98" arrivalSpeed="8.36" duration="34.00" routeLength="173.61" waitingTime="8.00" waitingCount="1" stopTime="0.00" timeLoss="13.90" rerouteNo="0" devices="tripinfo_643_1.463" vType="DEFAULT_VEHTYPE" speedFactor="1.09" vaporized=""/>
    <tripinfo id="635_4.160" depart="32.00" departLane="229823258_0" departPos="5.35" departSpeed="1.45" departDelay="0.00" arrival="61.00" arrivalLane="369977731_0" arrivalPos="101.59" arrivalSpeed="7.71" duration="29.00" routeLength="203.81" waitingTime="0.00" waitingCount="0" stopTime="0.00" timeLoss="3.27" rerouteNo="0" devices="tripinfo_635_4.160" vType="DEFAULT_VEHTYPE" speedFactor="0.98" vaporized=""/>
    <tripinfo id="112_3.327" depart="53.00" departLane="43321718#3_0" departPos="23.39" departSpeed="8.08" departDelay="0.79" arrival="62.00" arrivalLane="5976022_0" arrivalPos="2.38" arrivalSpeed="6.56" duration="9.00" routeLength="55.73" waitingTime="0.00" waitingCount="0" stopTime="0.00" timeLoss="1.72" rerouteNo="0" devices="tripinfo_112_3.327" vType="DEFAULT_VEHTYPE" speedFactor="0.97" vaporized=""/>
    <tripinfo id="693_1.530" depart="0.00" departLane="26545993#0_0" departPos="91.78" departSpeed="9.07" departDelay="0.00" arrival="63.00" arrivalLane="4074531#0_0" arrivalPos="129.52" arrivalSpeed="8.92" duration="63.00" routeLength="175.54" waitingTime="37.00" waitingCount="1" stopTime="0.00" timeLoss="43.03" rerouteNo="0" devices="tripinfo_693_1.530" vType="DEFAULT_VEHTYPE" speedFactor="1.09" vaporized=""/>
    <tripinfo id="115_2.389" depart="40.00" departLane="43321718#3_0" departPos="24.70" departSpeed="4.06" departDelay="0.59" arrival="69.00" arrivalLane="42636056_0" arrivalPos="44.42" arrivalSpeed="6.93" duration="29.00" routeLength="187.24" waitingTime="0.00" waitingCount="0" stopTime="0.00" timeLoss="5.15" rerouteNo="0" devices="tripinfo_115_2.389" vType="DEFAULT_VEHTYPE" speedFactor="0.91" vaporized=""/>
    <tripinfo id="718_3.169" depart="50.00" departLane="317003249#1_0" departPos="52.38" departSpeed="8.68" departDelay="0.00" arrival="71.00" arrivalLane="-43538577#3_0" arrivalPos="66.08" arrivalSpeed="7.91" duration="21.00" routeLength="159.68" waitingTime="0.00" waitingCount="0" stopTime="0.00" timeLoss="1.77" rerouteNo="0" devices="tripinfo_718_3.169" vType="DEFAULT_VEHTYPE" speedFactor="1.04" vaporized=""/>
    <tripinfo id="356_1.1491" depart="38.00" departLane="3792490#0_0" departPos="13.86" departSpeed="7.45" departDelay="0.86" arrival="76.00" arrivalLane="3792491#0_0" arrivalPos="137.26" arrivalSpeed="7.42" duration="38.00" routeLength="249.24" waitingTime="0.00" waitingCount="0" stopTime="0.00" timeLoss="3.62" rerouteNo="0" devices="tripinfo_356_1.1491" vType="DEFAULT_VEHTYPE" speedFactor="0.89" vaporized=""/>
    <tripinfo id="113_4.864" depart="47.00" departLane="22962979_0" departPos="30.30" departSpeed="8.65" departDelay="0.93" arrival="79.00" arrivalLane="14152308_0" arrivalPos="25.16" arrivalSpeed="8.58" duration="32.00" routeLength="235.99" waitingTime="0.00" waitingCount="0" stopTime="0.00" timeLoss="3.65" rerouteNo="0" devices="tripinfo_113_4.864" vType="DEFAULT_VEHTYPE" speedFactor="1.04" vaporized=""/>
    <tripinfo id="634_3.160" depart="50.00" departLane="229823258_0" departPos="5.13" departSpeed="1.67" departDelay="0.00" arrival="79.00" arrivalLane="369977731_0" arrivalPos="101.59" arrivalSpeed="7.62" duration="29.00" routeLength="204.03" waitingTime="0.00" waitingCount="0" stopTime="0.00" timeLoss="3.12" rerouteNo="0" devices="tripinfo_634_3.160" vType="DEFAULT_VEHTYPE" speedFactor="0.97" vaporized=""/>
    <tripinfo id="356_1.1492" depart="63.00" departLane="3792490#0_0" departPos="76.74" departSpeed="7.96" departDelay="0.14" arrival="89.00" arrivalLane="3792491#0_0" arrivalPos="137.26" arrivalSpeed="6.84" duration="26.00" routeLength="186.36" waitingTime="0.00" waitingCount="0" stopTime="0.00" timeLoss="2.43" rerouteNo="0" devices="tripinfo_356_1.1492" vType="DEFAULT_VEHTYPE" speedFactor="0.96" vaporized=""/>
    <tripinfo id="645_5.942" depart="72.00" departLane="22962979_0" departPos="75.63" departSpeed="7.08" departDelay="0.22" arrival="89.00" arrivalLane="532427444#4_0" arrivalPos="73.98" arrivalSpeed="6.93" duration="17.00" routeLength="100.28" waitingTime="0.00" waitingCount="0" stopTime="0.00" timeLoss="1.81" rerouteNo="0" devices="tripinfo_645_5.942" vType="DEFAULT_VEHTYPE" speedFactor="0.85" vaporized=""/>
    <tripinfo id="462_7.356" depart="53.00" departLane="43321718#3_0" departPos="12.18" departSpeed="5.89" departDelay="0.53" arrival="91.00" arrivalLane="38192815_0" arrivalPos="87.29" arrivalSpeed="9.41" duration="38.00" routeLength="296.11" waitingTime="0.00" waitingCount="0" stopTime="0.00" timeLoss="6.94" rerouteNo="0" devices="tripinfo_462_7.356" vType="DEFAULT_VEHTYPE" speedFactor="1.13" vaporized=""/>
    <tripinfo id="503_5.745" depart="36.00" departLane="43321718#3_0" departPos="0.09" departSpeed="8.72" departDelay="0.91" arrival="92.00" arrivalLane="8080823#0_0" arrivalPos="112.35" arrivalSpeed="7.95" duration="56.00" routeLength="434.19" waitingTime="0.00" waitingCount="0" stopTime="0.00" timeLoss="7.07" rerouteNo="0" devices="tripinfo_503_5.745" vType="DEFAULT_VEHTYPE" speedFactor="1.05" vaporized=""/>
    <tripinfo id="28_4.231" depart="69.00" departLane="230483152#0_0" departPos="29.33" departSpeed="10.88" departDelay="0.18" arrival="101.00" arrivalLane="4475731_0" arrivalPos="161.35" arrivalSpeed="10.50" duration="32.00" routeLength="308.02" waitingTime="0.00" waitingCount="0" stopTime="0.00" timeLoss="2.46" rerouteNo="0" devices="tripinfo_28_4.231" vType="DEFAULT_VEHTYPE" speedFactor="1.31" vaporized=""/>
    <tripinfo id="158_2.373" depart="40.00" departLane="-3791745#3_1" departPos="1.62" departSpeed="8.03" departDelay="0.00" arrival="105.00" arrivalLane="-43538577#3_0" arrivalPos="66.08" arrivalSpeed="7.49" duration="65.00" routeLength="165.59" waitingTime="38.00" waitingCount="1" stopTime="0.00" timeLoss="44.17" rerouteNo="0" devices="tripinfo_158_2.373" vType="DEFAULT_VEHTYPE" speedFactor="0.96" vaporized=""/>
    <tripinfo id="158_2.374" depart="80.00" departLane="-3791745#3_1" departPos="49.02" departSpeed="4.28" departDelay="0.00" arrival="107.00" arrivalLane="-43538577#3_0" arrivalPos="66.08" arrivalSpeed="9.19" duration="27.00" routeLength="118.19" waitingTime="8.00" waitingCount="1" stopTime="0.00" timeLoss="14.41" rerouteNo="0" devices="tripinfo_158_2.374" vType="DEFAULT_VEHTYPE" speedFactor="1.15" vaporized=""/>
    <tripinfo id="632_1.168" depart="80.00" departLane="229823258_0" departPos="2.71" departSpeed="4.09" departDelay="0.00" arrival="107.00" arrivalLane="369977731_0" arrivalPos="101.59" arrivalSpeed="7.64" duration="27.00" routeLength="206.45" waitingTime="0.00" waitingCount="0" stopTime="0.00" timeLoss="2.34" rerouteNo="0" devices="tripinfo_632_1.168" vType="DEFAULT_VEHTYPE" speedFactor="1.02" vaporized=""/>
    <tripinfo id="240_2.161" depart="71.00" departLane="3791031#0_0" departPos="98.96" departSpeed="9.51" departDelay="0.22" arrival="108.00" arrivalLane="4074531#0_0" arrivalPos="129.52" arrivalSpeed="8.86" duration="37.00" routeLength="171.79" waitingTime="14.00" waitingCount="1" stopTime="0.00" timeLoss="18.04" rerouteNo="0" devices="tripinfo_240_2.161" vType="DEFAULT_VEHTYPE" speedFactor="1.14" vaporized=""/>
    <tripinfo id="361_5.170" depart="72.00" departLane="3791031#0_1" departPos="42.22" departSpeed="9.15" departDelay="0.56" arrival="108.00" arrivalLane="4074531#0_1" arrivalPos="129.52" arrivalSpeed="9.14" duration="36.00" routeLength="222.60" waitingTime="3.00" waitingCount="1" stopTime="0.00" timeLoss="10.90" rerouteNo="0" devices="tripinfo_361_5.170" vType="DEFAULT_VEHTYPE" speedFactor="1.10" vaporized=""/>
    <tripinfo id="171_3.429" depart="85.00" departLane="43321718#3_0" departPos="24.79" departSpeed="8.39" departDelay="0.44" arrival="122.00" arrivalLane="77616869#0_0" arrivalPos="90.89" arrivalSpeed="7.62" duration="37.00" routeLength="284.71" waitingTime="0.00" waitingCount="0" stopTime="0.00" timeLoss="3.72" rerouteNo="0" devices="tripinfo_171_3.429" vType="DEFAULT_VEHTYPE" speedFactor="1.01" vaporized=""/>
    <tripinfo id="79_6.174" depart="88.00" departLane="-77616869#2_0" departPos="31.56" departSpeed="8.80" departDelay="0.95" arrival="122.00" arrivalLane="-43321718#3_0" arrivalPos="37.17" arrivalSpeed="8.34" duration="34.00" routeLength="272.79" waitingTime="0.00" waitingCount="0" stopTime="0.00" timeLoss="3.48" rerouteNo="0" devices="tripinfo_79_6.174" vType="DEFAULT_VEHTYPE" speedFactor="1.06" vaporized=""/>
    <tripinfo id="501_2.401" depart="66.00" departLane="43321718#3_0" departPos="1.75" departSpeed="7.88" departDelay="0.12" arrival="126.00" arrivalLane="8080823#0_0" arrivalPos="112.35" arrivalSpeed="7.82" duration="60.00" routeLength="432.53" waitingTime="0.00" waitingCount="0" stopTime="0.00" timeLoss="6.03" rerouteNo="0" devices="tripinfo_501_2.401" vType="DEFAULT_VEHTYPE" speedFactor="0.95" vaporized=""/>
    <tripinfo id="358_1.145" depart="102.00" departLane="3791031#0_0" departPos="92.65" departSpeed="7.88" departDelay="0.56" arrival="127.00" arrivalLane="4074531#0_0" arrivalPos="129.52" arrivalSpeed="7.43" duration="25.00" routeLength="178.10" waitingTime="0.00" waitingCount="0" stopTime="0.00" timeLoss="2.04" rerouteNo="0" devices="tripinfo_358_1.145" vType="DEFAULT_VEHTYPE" speedFactor="0.95" vaporized=""/>
    <tripinfo id="72_5.400" depart="47.00" departLane="22962979_0" departPos="9.29" departSpeed="9.59" departDelay="0.17" arrival="128.00" arrivalLane="8080823#0_0" arrivalPos="112.35" arrivalSpeed="8.56" duration="81.00" routeLength="661.05" waitingTime="0.00" waitingCount="0" stopTime="0.00" timeLoss="12.58" rerouteNo="0" devices="tripinfo_72_5.400" vType="DEFAULT_VEHTYPE" speedFactor="1.15" vaporized=""/>
    <tripinfo id="633_2.200" depart="104.00" departLane="229823258_0" departPos="5.35" departSpeed="1.45" departDelay="0.00" arrival="130.00" arrivalLane="369977731_0" arrivalPos="101.59" arrivalSpeed="8.12" duration="26.00" routeLength="203.81" waitingTime="0.00" waitingCount="0" stopTime="0.00" timeLoss="2.75" rerouteNo="0" devices="tripinfo_633_2.200" vType="DEFAULT_VEHTYPE" speedFactor="1.06" vaporized=""/>
    <tripinfo id="1273_1.313" depart="10.00" departLane="4472590#0_1" departPos="157.75" departSpeed="8.01" departDelay="0.78" arrival="131.00" arrivalLane="-43321718#3_0" arrivalPos="37.17" arrivalSpeed="7.80" duration="121.00" routeLength="752.38" waitingTime="15.00" waitingCount="1" stopTime="0.00" timeLoss="28.61" rerouteNo="0" devices="tripinfo_1273_1.313" vType="DEFAULT_VEHTYPE" speedFactor="0.96" vaporized=""/>
    <tripinfo id="25_1.90" depart="99.00" departLane="230483152#0_0" departPos="26.97" departSpeed="8.81" departDelay="0.18" arrival="138.00" arrivalLane="4475731_0" arrivalPos="161.35" arrivalSpeed="8.53" duration="39.00" routeLength="310.38" waitingTime="0.00" waitingCount="0" stopTime="0.00" timeLoss="3.08" rerouteNo="0" devices="tripinfo_25_1.90" vType="DEFAULT_VEHTYPE" speedFactor="1.06" vaporized=""/>
    <tripinfo id="645_5.944" depart="133.00" departLane="43321718#3_0" departPos="20.22" departSpeed="8.25" departDelay="0.65" arrival="139.00" arrivalLane="43321722_0" arrivalPos="14.17" arrivalSpeed="7.49" duration="6.00" routeLength="38.95" waitingTime="0.00" waitingCount="0" stopTime="0.00" timeLoss="0.51" rerouteNo="0" devices="tripinfo_645_5.944" vType="DEFAULT_VEHTYPE" speedFactor="0.99" vaporized=""/>
    <tripinfo id="693_1.532" depart="80.00" departLane="26545993#0_0" departPos="2.67" departSpeed="8.10" departDelay="0.00" arrival="140.00" arrivalLane="4074531#0_1" arrivalPos="129.52" arrivalSpeed="7.58" duration="60.00" routeLength="264.65" waitingTime="21.00" waitingCount="1" stopTime="0.00" timeLoss="26.93" rerouteNo="0" devices="tripinfo_693_1.532" vType="DEFAULT_VEHTYPE" speedFactor="0.97" vaporized=""/>
    <tripinfo id="402_3.706" depart="102.00" departLane="43321718#3_0" departPos="32.32" departSpeed="7.40" departDelay="0.73" arrival="140.00" arrivalLane="369977731_0" arrivalPos="101.59" arrivalSpeed="6.37" duration="38.00" routeLength="249.92" waitingTime="0.00" waitingCount="0" stopTime="0.00" timeLoss="4.12" rerouteNo="0" devices="tripinfo_402_3.706" vType="DEFAULT_VEHTYPE" speedFactor="0.89" vaporized=""/>
    <tripinfo id="694_3.172" depart="80.00" departLane="26545993#0_0" departPos="67.03" departSpeed="6.87" departDelay="0.00" arrival="141.00" arrivalLane="4074531#0_0" arrivalPos="129.52" arrivalSpeed="5.92" duration="61.00" routeLength="200.29" waitingTime="25.00" waitingCount="1" stopTime="0.00" timeLoss="31.04" rerouteNo="0" devices="tripinfo_694_3.172" vType="DEFAULT_VEHTYPE" speedFactor="0.82" vaporized=""/>
    <tripinfo id="Ambulance_3" depart="120.00" departLane="-3791031#3_0" departPos="5.10" departSpeed="0.00" departDelay="0.00" arrival="141.00" arrivalLane="-3791031#3_0" arrivalPos="125.07" arrivalSpeed="8.23" duration="21.00" routeLength="119.97" waitingTime="0.00" waitingCount="0" stopTime="0.00" timeLoss="5.77" rerouteNo="0" devices="tripinfo_Ambulance_3" vType="Ambulance" speedFactor="0.99" vaporized=""/>
    <tripinfo id="635_4.161" depart="105.00" departLane="229823258_0" departPos="0.68" departSpeed="0.40" departDelay="1.00" arrival="142.00" arrivalLane="369977731_0" arrivalPos="101.59" arrivalSpeed="9.38" duration="37.00" routeLength="208.48" waitingTime="1.00" waitingCount="1" stopTime="0.00" timeLoss="13.96" rerouteNo="0" devices="tripinfo_635_4.161" vType="DEFAULT_VEHTYPE" speedFactor="1.13" vaporized=""/>
    <tripinfo id="158_2.375" depart="120.00" departLane="-3791745#3_1" departPos="5.56" departSpeed="8.17" departDelay="0.00" arrival="142.00" arrivalLane="-43538577#3_0" arrivalPos="66.08" arrivalSpeed="7.94" duration="22.00" routeLength="161.65" waitingTime="0.00" waitingCount="0" stopTime="0.00" timeLoss="1.61" rerouteNo="0" devices="tripinfo_158_2.375" vType="DEFAULT_VEHTYPE" speedFactor="0.98" vaporized=""/>
    <tripinfo id="431_2.223" depart="13.00" departLane="4472590#0_1" departPos="84.88" departSpeed="9.44" departDelay="0.77" arrival="144.00" arrivalLane="369977731_0" arrivalPos="101.59" arrivalSpeed="8.71" duration="131.00" routeLength="961.18" waitingTime="13.00" waitingCount="1" stopTime="0.00" timeLoss="29.17" rerouteNo="0" devices="tripinfo_431_2.223" vType="DEFAULT_VEHTYPE" speedFactor="1.13" vaporized=""/>
    <tripinfo id="124_3.153" depart="140.00" departLane="-3791031#3_0" departPos="91.58" departSpeed="7.57" departDelay="0.00" arrival="145.00" arrivalLane="-3791031#3_0" arrivalPos="125.07" arrivalSpeed="6.95" duration="5.00" routeLength="33.49" waitingTime="0.00" waitingCount="0" stopTime="0.00" timeLoss="0.40" rerouteNo="0" devices="tripinfo_124_3.153" vType="DEFAULT_VEHTYPE" speedFactor="0.91" vaporized=""/>
    <tripinfo id="Ambulance_2" depart="120.00" departLane="229823258_0" departPos="5.10" departSpeed="0.00" departDelay="0.00" arrival="153.00" arrivalLane="369977731_0" arrivalPos="101.59" arrivalSpeed="7.98" duration="33.00" routeLength="204.06" waitingTime="0.00" waitingCount="0" stopTime="0.00" timeLoss="6.77" rerouteNo="0" devices="tripinfo_Ambulance_2" vType="Ambulance" speedFactor="0.96" vaporized=""/>
    <tripinfo id="125_4.118" depart="140.00" departLane="-3791031#3_0" departPos="19.03" departSpeed="8.58" departDelay="0.00" arrival="154.00" arrivalLane="-3791031#3_0" arrivalPos="125.07" arrivalSpeed="7.79" duration="14.00" routeLength="106.04" waitingTime="0.00" waitingCount="0" stopTime="0.00" timeLoss="1.25" rerouteNo="0" devices="tripinfo_125_4.118" vType="DEFAULT_VEHTYPE" speedFactor="1.03" vaporized=""/>
    <tripinfo id="544_4.217" depart="20.00" departLane="2110697#0_0" departPos="2.10" departSpeed="7.55" departDelay="0.00" arrival="161.00" arrivalLane="369977731_0" arrivalPos="101.59" arrivalSpeed="7.43" duration="141.00" routeLength="619.53" waitingTime="39.00" waitingCount="2" stopTime="0.00" timeLoss="57.46" rerouteNo="0" devices="tripinfo_544_4.217" vType="DEFAULT_VEHTYPE" speedFactor="0.91" vaporized=""/>
    <tripinfo id="76_3.136" depart="118.00" departLane="-77616869#2_0" departPos="50.50" departSpeed="9.50" departDelay="0.95" arrival="163.00" arrivalLane="369977731_0" arrivalPos="101.59" arrivalSpeed="8.48" duration="45.00" routeLength="394.57" waitingTime="0.00" waitingCount="0" stopTime="0.00" timeLoss="3.68" rerouteNo="0" devices="tripinfo_76_3.136" vType="DEFAULT_VEHTYPE" speedFactor="1.14" vaporized=""/>
    <tripinfo id="543_1.407" depart="50.00" departLane="2110697#0_0" departPos="122.20" departSpeed="8.85" departDelay="0.00" arrival="165.00" arrivalLane="-43321718#3_0" arrivalPos="37.17" arrivalSpeed="8.25" duration="115.00" routeLength="531.96" waitingTime="32.00" waitingCount="2" stopTime="0.00" timeLoss="54.15" rerouteNo="0" devices="tripinfo_543_1.407" vType="DEFAULT_VEHTYPE" speedFactor="1.06" vaporized=""/>
    <tripinfo id="718_3.170" depart="140.00" departLane="317003249#1_0" departPos="4.00" departSpeed="9.22" departDelay="0.00" arrival="165.00" arrivalLane="-43538577#3_0" arrivalPos="66.08" arrivalSpeed="9.21" duration="25.00" routeLength="208.06" waitingTime="0.00" waitingCount="0" stopTime="0.00" timeLoss="1.79" rerouteNo="0" devices="tripinfo_718_3.170" vType="DEFAULT_VEHTYPE" speedFactor="1.11" vaporized=""/>
    <tripinfo id="543_1.406" depart="5.00" departLane="2110697#0_0" departPos="38.02" departSpeed="9.33" departDelay="0.00" arrival="167.00" arrivalLane="8080823#0_0" arrivalPos="112.35" arrivalSpeed="8.71" duration="162.00" routeLength="897.65" waitingTime="51.00" waitingCount="1" stopTime="0.00" timeLoss="65.18" rerouteNo="0" devices="tripinfo_543_1.406" vType="DEFAULT_VEHTYPE" speedFactor="1.12" vaporized=""/>
    <tripinfo id="543_1.408" depart="95.00" departLane="2110697#0_0" departPos="183.69" departSpeed="9.51" departDelay="0.00" arrival="167.00" arrivalLane="-43321718#3_0" arrivalPos="37.17" arrivalSpeed="8.41" duration="72.00" routeLength="470.47" waitingTime="9.00" waitingCount="1" stopTime="0.00" timeLoss="21.51" rerouteNo="0" devices="tripinfo_543_1.408" vType="DEFAULT_VEHTYPE" speedFactor="1.14" vaporized=""/>
    <tripinfo id="634_3.161" depart="140.00" departLane="229823258_0" departPos="1.43" departSpeed="4.94" departDelay="0.00" arrival="171.00" arrivalLane="369977731_0" arrivalPos="101.59" arrivalSpeed="6.81" duration="31.00" routeLength="207.73" waitingTime="0.00" waitingCount="0" stopTime="0.00" timeLoss="3.30" rerouteNo="0" devices="tripinfo_634_3.161" vType="DEFAULT_VEHTYPE" speedFactor="0.91" vaporized=""/>
    <tripinfo id="544_4.218" depart="80.00" departLane="2110697#0_0" departPos="2.78" departSpeed="8.16" departDelay="0.00" arrival="172.00" arrivalLane="-43321718#3_0" arrivalPos="37.17" arrivalSpeed="7.87" duration="92.00" routeLength="651.38" waitingTime="0.00" waitingCount="0" stopTime="0.00" timeLoss="11.23" rerouteNo="0" devices="tripinfo_544_4.218" vType="DEFAULT_VEHTYPE" speedFactor="0.98" vaporized=""/>
    <tripinfo id="1087_2.119" depart="80.00" departLane="554991019_0" departPos="19.96" departSpeed="7.81" departDelay="0.00" arrival="173.00" arrivalLane="-43538577#3_0" arrivalPos="66.08" arrivalSpeed="6.96" duration="93.00" routeLength="549.96" waitingTime="2.00" waitingCount="1" stopTime="0.00" timeLoss="21.17" rerouteNo="0" devices="tripinfo_1087_2.119" vType="DEFAULT_VEHTYPE" speedFactor="0.94" vaporized=""/>
    <tripinfo id="356_1.1490" depart="12.00" departLane="3792490#0_1" departPos="105.09" departSpeed="5.26" departDelay="0.57" arrival="174.00" arrivalLane="4628796#1_0" arrivalPos="258.84" arrivalSpeed="6.91" duration="162.00" routeLength="696.34" waitingTime="48.00" waitingCount="2" stopTime="0.00" timeLoss="67.43" rerouteNo="0" devices="tripinfo_356_1.1490" vType="DEFAULT_VEHTYPE" speedFactor="0.86" vaporized=""/>
    <tripinfo id="357_2.178" depart="32.00" departLane="3792490#0_1" departPos="65.37" departSpeed="7.52" departDelay="0.00" arrival="174.00" arrivalLane="4628796#1_1" arrivalPos="258.84" arrivalSpeed="7.51" duration="142.00" routeLength="736.06" waitingTime="26.00" waitingCount="2" stopTime="0.00" timeLoss="46.49" rerouteNo="0" devices="tripinfo_357_2.178" vType="DEFAULT_VEHTYPE" speedFactor="0.90" vaporized=""/>
    <tripinfo id="1088_3.563" depart="104.00" departLane="554991019_0" departPos="69.45" departSpeed="8.78" departDelay="0.00" arrival="175.00" arrivalLane="-43538577#3_0" arrivalPos="66.08" arrivalSpeed="8.70" duration="71.00" routeLength="500.47" waitingTime="0.00" waitingCount="0" stopTime="0.00" timeLoss="12.51" rerouteNo="0" devices="tripinfo_1088_3.563" vType="DEFAULT_VEHTYPE" speedFactor="1.05" vaporized=""/>
    <tripinfo id="668_5.613" depart="109.00" departLane="532097269#1.24_0" departPos="21.40" departSpeed="7.07" departDelay="0.56" arrival="182.00" arrivalLane="-43538577#3_0" arrivalPos="66.08" arrivalSpeed="5.93" duration="73.00" routeLength="450.60" waitingTime="0.00" waitingCount="0" stopTime="0.00" timeLoss="7.91" rerouteNo="0" devices="tripinfo_668_5.613" vType="DEFAULT_VEHTYPE" speedFactor="0.85" vaporized=""/>
    <tripinfo id="FuelTruck_1" depart="120.00" departLane="230483152#0_1" departPos="10.10" departSpeed="0.00" departDelay="0.00" arrival="183.00" arrivalLane="4475731_0" arrivalPos="161.35" arrivalSpeed="6.38" duration="63.00" routeLength="327.25" waitingTime="0.00" waitingCount="0" stopTime="0.00" timeLoss="14.08" rerouteNo="0" devices="tripinfo_FuelTruck_1" vType="fueltruck" speedFactor="0.82" vaporized=""/>
    <tripinfo id="356_1.1495" depart="140.00" departLane="3792490#0_0" departPos="65.02" departSpeed="8.62" departDelay="0.00" arrival="184.00" arrivalLane="3792491#0_0" arrivalPos="137.26" arrivalSpeed="8.13" duration="44.00" routeLength="198.08" waitingTime="14.00" waitingCount="1" stopTime="0.00" timeLoss="20.30" rerouteNo="0" devices="tripinfo_356_1.1495" vType="DEFAULT_VEHTYPE" speedFactor="1.04" vaporized=""/>
    <tripinfo id="627_1.949" depart="111.00" departLane="43321718#3_0" departPos="32.62" departSpeed="6.66" departDelay="0.29" arrival="190.00" arrivalLane="8080823#0_0" arrivalPos="112.35" arrivalSpeed="6.24" duration="79.00" routeLength="401.66" waitingTime="9.00" waitingCount="1" stopTime="0.00" timeLoss="19.42" rerouteNo="0" devices="tripinfo_627_1.949" vType="DEFAULT_VEHTYPE" speedFactor="0.80" vaporized=""/>
    <tripinfo id="Trailer_2" depart="120.00" departLane="43321718#3_0" departPos="10.10" departSpeed="0.00" departDelay="0.00" arrival="190.00" arrivalLane="317003251#0_0" arrivalPos="98.08" arrivalSpeed="8.08" duration="70.00" routeLength="444.48" waitingTime="0.00" waitingCount="0" stopTime="0.00" timeLoss="15.89" rerouteNo="0" devices="tripinfo_Trailer_2" vType="trailer" speedFactor="0.98" vaporized=""/>
    <tripinfo id="157_1.292" depart="32.00" departLane="3791745#0_1" departPos="20.56" departSpeed="9.32" departDelay="0.00" arrival="192.00" arrivalLane="8080823#0_0" arrivalPos="112.35" arrivalSpeed="8.67" duration="160.00" routeLength="1350.30" waitingTime="0.00" waitingCount="0" stopTime="0.00" timeLoss="14.58" rerouteNo="0" devices="tripinfo_157_1.292" vType="DEFAULT_VEHTYPE" speedFactor="1.12" vaporized=""/>
    <tripinfo id="115_2.391" depart="152.00" departLane="43321718#3_0" departPos="32.65" departSpeed="9.09" departDelay="0.59" arrival="194.00" arrivalLane="77616869#0_0" arrivalPos="90.89" arrivalSpeed="8.44" duration="42.00" routeLength="276.85" waitingTime="0.00" waitingCount="0" stopTime="0.00" timeLoss="12.07" rerouteNo="0" devices="tripinfo_115_2.391" vType="DEFAULT_VEHTYPE" speedFactor="1.09" vaporized=""/>
    <tripinfo id="151_2.343" depart="172.00" departLane="-77616869#2_0" departPos="29.54" departSpeed="8.94" departDelay="0.54" arrival="194.00" arrivalLane="14039609#0_0" arrivalPos="69.48" arrivalSpeed="8.17" duration="22.00" routeLength="143.94" waitingTime="0.00" waitingCount="0" stopTime="0.00" timeLoss="5.48" rerouteNo="0" devices="tripinfo_151_2.343" vType="DEFAULT_VEHTYPE" speedFactor="1.07" vaporized=""/>
    <tripinfo id="1072_3.620" depart="64.00" departLane="4472590#0_1" departPos="26.59" departSpeed="8.62" departDelay="0.45" arrival="195.00" arrivalLane="369977731_0" arrivalPos="101.59" arrivalSpeed="8.37" duration="131.00" routeLength="1019.47" waitingTime="0.00" waitingCount="0" stopTime="0.00" timeLoss="12.60" rerouteNo="0" devices="tripinfo_1072_3.620" vType="DEFAULT_VEHTYPE" speedFactor="1.03" vaporized=""/>
    <tripinfo id="986_3.228" depart="80.00" departLane="4074526#0_0" departPos="177.11" departSpeed="8.93" departDelay="0.00" arrival="199.00" arrivalLane="8080823#0_0" arrivalPos="112.35" arrivalSpeed="8.32" duration="119.00" routeLength="761.85" waitingTime="21.00" waitingCount="1" stopTime="0.00" timeLoss="33.25" rerouteNo="0" devices="tripinfo_986_3.228" vType="DEFAULT_VEHTYPE" speedFactor="1.07" vaporized=""/>
    <tripinfo id="693_1.534" depart="160.00" departLane="26545993#0_0" departPos="112.06" departSpeed="7.63" departDelay="0.00" arrival="199.00" arrivalLane="4074531#0_0" arrivalPos="129.52" arrivalSpeed="7.48" duration="39.00" routeLength="155.26" waitingTime="13.00" waitingCount="1" stopTime="0.00" timeLoss="18.29" rerouteNo="0" devices="tripinfo_693_1.534" vType="DEFAULT_VEHTYPE" speedFactor="0.92" vaporized=""/>
    <tripinfo id="28_4.232" depart="159.00" departLane="230483152#0_0" departPos="68.35" departSpeed="7.57" departDelay="0.18" arrival="200.00" arrivalLane="4475731_0" arrivalPos="161.35" arrivalSpeed="7.32" duration="41.00" routeLength="269.00" waitingTime="0.00" waitingCount="0" stopTime="0.00" timeLoss="4.30" rerouteNo="0" devices="tripinfo_28_4.232" vType="DEFAULT_VEHTYPE" speedFactor="0.91" vaporized=""/>
    <tripinfo id="633_2.201" depart="176.00" departLane="229823258_0" departPos="4.09" departSpeed="2.71" departDelay="0.00" arrival="202.00" arrivalLane="369977731_0" arrivalPos="101.59" arrivalSpeed="8.48" duration="26.00" routeLength="205.07" waitingTime="0.00" waitingCount="0" stopTime="0.00" timeLoss="2.53" rerouteNo="0" devices="tripinfo_633_2.201" vType="DEFAULT_VEHTYPE" speedFactor="1.07" vaporized=""/>
    <tripinfo id="1274_2.129" depart="10.00" departLane="4472590#0_1" departPos="0.01" departSpeed="6.88" departDelay="0.78" arrival="203.00" arrivalLane="-43321718#3_0" arrivalPos="37.17" arrivalSpeed="6.85" duration="193.00" routeLength="910.12" waitingTime="43.00" waitingCount="1" stopTime="0.00" timeLoss="61.88" rerouteNo="0" devices="tripinfo_1274_2.129" vType="DEFAULT_VEHTYPE" speedFactor="0.83" vaporized=""/>
    <tripinfo id="635_4.162" depart="177.00" departLane="229823258_0" departPos="0.00" departSpeed="1.29" departDelay="1.00" arrival="204.00" arrivalLane="369977731_0" arrivalPos="101.59" arrivalSpeed="8.39" duration="27.00" routeLength="209.16" waitingTime="0.00" waitingCount="0" stopTime="0.00" timeLoss="4.74" rerouteNo="0" devices="tripinfo_635_4.162" vType="DEFAULT_VEHTYPE" speedFactor="1.16" vaporized=""/>
    <tripinfo id="543_1.409" depart="140.00" departLane="2110697#0_0" departPos="175.42" departSpeed="8.34" departDelay="0.00" arrival="206.00" arrivalLane="-43321718#3_0" arrivalPos="37.17" arrivalSpeed="7.21" duration="66.00" routeLength="478.74" waitingTime="0.00" waitingCount="0" stopTime="0.00" timeLoss="7.63" rerouteNo="0" devices="tripinfo_543_1.409" vType="DEFAULT_VEHTYPE" speedFactor="1.00" vaporized=""/>
    <tripinfo id="157_1.293" depart="104.00" departLane="3791745#0_1" departPos="6.36" departSpeed="7.29" departDelay="0.00" arrival="207.00" arrivalLane="-238740928#2_0" arrivalPos="59.62" arrivalSpeed="6.96" duration="103.00" routeLength="668.53" waitingTime="0.00" waitingCount="0" stopTime="0.00" timeLoss="10.33" rerouteNo="0" devices="tripinfo_157_1.293" vType="DEFAULT_VEHTYPE" speedFactor="0.88" vaporized=""/>
    <tripinfo id="108_3.265" depart="73.00" departLane="22962979_0" departPos="8.98" departSpeed="7.15" departDelay="0.85" arrival="208.00" arrivalLane="128944693#1_0" arrivalPos="29.63" arrivalSpeed="6.76" duration="135.00" routeLength="761.20" waitingTime="6.00" waitingCount="1" stopTime="0.00" timeLoss="24.34" rerouteNo="0" devices="tripinfo_108_3.265" vType="DEFAULT_VEHTYPE" speedFactor="0.86" vaporized=""/>