<?xml version="1.0" encoding="UTF-8"?>

<!-- generated on 2023-03-14 02:26:21 by Eclipse SUMO GUI Version 1.14.1
<configuration xmlns:xsi="http://www.w3.org/2001/XMLSchema-instance" xsi:noNamespaceSchemaLocation="http://sumo.dlr.de/xsd/sumoConfiguration.xsd">

    <input>
        <net-file value="/Users/gjy/OITSC_Urban/nets/1km/selected1km.net.xml"/>
        <route-files value="/Users/gjy/OITSC_Urban/nets/1km/selected1km_1kSec.rou.xml"/>
    </input>

    <output>
        <tripinfo-output value="SampleObservation-QL-tripinfo-proposed-run1.xml"/>
    </output>

    <processing>
        <time-to-teleport value="-1"/>
        <waiting-time-memory value="10000"/>
    </processing>

    <traci_server>
        <remote-port value="65338"/>
    </traci_server>

    <random_number>
        <random value="true"/>
    </random_number>

    <gui_only>
        <quit-on-end value="true"/>
        <start value="true"/>
    </gui_only>

</configuration>
-->

<tripinfos xmlns:xsi="http://www.w3.org/2001/XMLSchema-instance" xsi:noNamespaceSchemaLocation="http://sumo.dlr.de/xsd/tripinfo_file.xsd">
    <tripinfo id="158_2.372" depart="0.00" departLane="-3791745#3_1" departPos="12.11" departSpeed="9.18" departDelay="0.00" arrival="18.00" arrivalLane="-43538577#3_0" arrivalPos="66.08" arrivalSpeed="8.30" duration="18.00" routeLength="155.10" waitingTime="0.00" waitingCount="0" stopTime="0.00" timeLoss="0.94" rerouteNo="0" devices="tripinfo_158_2.372" vType="DEFAULT_VEHTYPE" speedFactor="1.10" vaporized=""/>
    <tripinfo id="635_4.160" depart="32.00" departLane="229823258_0" departPos="6.35" departSpeed="0.45" departDelay="0.00" arrival="57.00" arrivalLane="369977731_0" arrivalPos="101.59" arrivalSpeed="9.06" duration="25.00" routeLength="202.81" waitingTime="0.00" waitingCount="0" stopTime="0.00" timeLoss="3.15" rerouteNo="0" devices="tripinfo_635_4.160" vType="DEFAULT_VEHTYPE" speedFactor="1.15" vaporized=""/>
    <tripinfo id="643_1.463" depart="24.00" departLane="22962979_0" departPos="26.65" departSpeed="8.50" departDelay="0.22" arrival="58.00" arrivalLane="532427444#4_0" arrivalPos="73.98" arrivalSpeed="7.51" duration="34.00" routeLength="149.26" waitingTime="11.00" waitingCount="1" stopTime="0.00" timeLoss="15.81" rerouteNo="0" devices="tripinfo_643_1.463" vType="DEFAULT_VEHTYPE" speedFactor="1.02" vaporized=""/>
    <tripinfo id="112_3.327" depart="53.00" departLane="43321718#3_0" departPos="20.85" departSpeed="8.14" departDelay="0.79" arrival="62.00" arrivalLane="5976022_0" arrivalPos="2.38" arrivalSpeed="5.74" duration="9.00" routeLength="58.27" waitingTime="0.00" waitingCount="0" stopTime="0.00" timeLoss="1.67" rerouteNo="0" devices="tripinfo_112_3.327" vType="DEFAULT_VEHTYPE" speedFactor="0.98" vaporized=""/>
    <tripinfo id="693_1.530" depart="0.00" departLane="26545993#0_0" departPos="11.49" departSpeed="8.19" departDelay="0.00" arrival="64.00" arrivalLane="4074531#0_0" arrivalPos="129.52" arrivalSpeed="7.90" duration="64.00" routeLength="255.83" waitingTime="27.00" waitingCount="1" stopTime="0.00" timeLoss="32.53" rerouteNo="0" devices="tripinfo_693_1.530" vType="DEFAULT_VEHTYPE" speedFactor="0.98" vaporized=""/>
    <tripinfo id="115_2.389" depart="40.00" departLane="43321718#3_0" departPos="25.41" departSpeed="8.12" departDelay="0.59" arrival="65.00" arrivalLane="42636056_0" arrivalPos="44.42" arrivalSpeed="7.93" duration="25.00" routeLength="186.53" waitingTime="0.00" waitingCount="0" stopTime="0.00" timeLoss="2.02" rerouteNo="0" devices="tripinfo_115_2.389" vType="DEFAULT_VEHTYPE" speedFactor="0.98" vaporized=""/>
    <tripinfo id="356_1.1491" depart="38.00" departLane="3792490#0_0" departPos="49.22" departSpeed="8.28" departDelay="0.86" arrival="66.00" arrivalLane="3792491#0_0" arrivalPos="137.26" arrivalSpeed="7.12" duration="28.00" routeLength="213.88" waitingTime="0.00" waitingCount="0" stopTime="0.00" timeLoss="2.18" rerouteNo="0" devices="tripinfo_356_1.1491" vType="DEFAULT_VEHTYPE" speedFactor="0.99" vaporized=""/>
    <tripinfo id="718_3.169" depart="50.00" departLane="317003249#1_0" departPos="38.31" departSpeed="8.60" departDelay="0.00" arrival="73.00" arrivalLane="-43538577#3_0" arrivalPos="66.08" arrivalSpeed="7.30" duration="23.00" routeLength="173.75" waitingTime="0.00" waitingCount="0" stopTime="0.00" timeLoss="2.12" rerouteNo="0" devices="tripinfo_718_3.169" vType="DEFAULT_VEHTYPE" speedFactor="1.03" vaporized=""/>
    <tripinfo id="113_4.864" depart="47.00" departLane="22962979_0" departPos="57.08" departSpeed="8.81" departDelay="0.93" arrival="75.00" arrivalLane="14152308_0" arrivalPos="25.16" arrivalSpeed="8.31" duration="28.00" routeLength="209.21" waitingTime="0.00" waitingCount="0" stopTime="0.00" timeLoss="3.29" rerouteNo="0" devices="tripinfo_113_4.864" vType="DEFAULT_VEHTYPE" speedFactor="1.06" vaporized=""/>
    <tripinfo id="634_3.160" depart="50.00" departLane="229823258_0" departPos="5.80" departSpeed="1.00" departDelay="0.00" arrival="80.00" arrivalLane="369977731_0" arrivalPos="101.59" arrivalSpeed="7.44" duration="30.00" routeLength="203.36" waitingTime="0.00" waitingCount="0" stopTime="0.00" timeLoss="3.48" rerouteNo="0" devices="tripinfo_634_3.160" vType="DEFAULT_VEHTYPE" speedFactor="0.93" vaporized=""/>
    <tripinfo id="356_1.1492" depart="63.00" departLane="3792490#0_0" departPos="55.66" departSpeed="8.04" departDelay="0.14" arrival="92.00" arrivalLane="3792491#0_0" arrivalPos="137.26" arrivalSpeed="7.08" duration="29.00" routeLength="207.44" waitingTime="0.00" waitingCount="0" stopTime="0.00" timeLoss="2.62" rerouteNo="0" devices="tripinfo_356_1.1492" vType="DEFAULT_VEHTYPE" speedFactor="0.97" vaporized=""/>
    <tripinfo id="462_7.356" depart="53.00" departLane="43321718#3_0" departPos="3.66" departSpeed="8.62" departDelay="0.53" arrival="95.00" arrivalLane="38192815_0" arrivalPos="87.29" arrivalSpeed="7.46" duration="42.00" routeLength="304.63" waitingTime="0.00" waitingCount="0" stopTime="0.00" timeLoss="6.39" rerouteNo="0" devices="tripinfo_462_7.356" vType="DEFAULT_VEHTYPE" speedFactor="1.04" vaporized=""/>
    <tripinfo id="503_5.745" depart="36.00" departLane="43321718#3_0" departPos="36.93" departSpeed="7.32" departDelay="0.91" arrival="96.00" arrivalLane="8080823#0_0" arrivalPos="112.35" arrivalSpeed="6.22" duration="60.00" routeLength="397.35" waitingTime="0.00" waitingCount="0" stopTime="0.00" timeLoss="6.98" rerouteNo="0" devices="tripinfo_503_5.745" vType="DEFAULT_VEHTYPE" speedFactor="0.88" vaporized=""/>
    <tripinfo id="543_1.406" depart="5.00" departLane="2110697#0_0" departPos="221.22" departSpeed="8.83" departDelay="0.00" arrival="98.00" arrivalLane="8080823#0_0" arrivalPos="112.35" arrivalSpeed="7.87" duration="93.00" routeLength="714.45" waitingTime="0.00" waitingCount="0" stopTime="0.00" timeLoss="11.65" rerouteNo="0" devices="tripinfo_543_1.406" vType="DEFAULT_VEHTYPE" speedFactor="1.06" vaporized=""/>
    <tripinfo id="645_5.942" depart="72.00" departLane="22962979_0" departPos="17.74" departSpeed="8.71" departDelay="0.22" arrival="100.00" arrivalLane="532427444#4_0" arrivalPos="73.98" arrivalSpeed="8.62" duration="28.00" routeLength="158.17" waitingTime="4.00" waitingCount="1" stopTime="0.00" timeLoss="9.47" rerouteNo="0" devices="tripinfo_645_5.942" vType="DEFAULT_VEHTYPE" speedFactor="1.05" vaporized=""/>
    <tripinfo id="158_2.373" depart="40.00" departLane="-3791745#3_1" departPos="10.07" departSpeed="9.72" departDelay="0.00" arrival="103.00" arrivalLane="-43538577#3_0" arrivalPos="66.08" arrivalSpeed="8.62" duration="63.00" routeLength="157.14" waitingTime="41.00" waitingCount="1" stopTime="0.00" timeLoss="46.33" rerouteNo="0" devices="tripinfo_158_2.373" vType="DEFAULT_VEHTYPE" speedFactor="1.17" vaporized=""/>
    <tripinfo id="632_1.168" depart="80.00" departLane="229823258_0" departPos="5.55" departSpeed="1.25" departDelay="0.00" arrival="104.00" arrivalLane="369977731_0" arrivalPos="101.59" arrivalSpeed="9.26" duration="24.00" routeLength="203.61" waitingTime="0.00" waitingCount="0" stopTime="0.00" timeLoss="3.22" rerouteNo="0" devices="tripinfo_632_1.168" vType="DEFAULT_VEHTYPE" speedFactor="1.19" vaporized=""/>
    <tripinfo id="694_3.172" depart="80.00" departLane="26545993#0_0" departPos="94.51" departSpeed="7.95" departDelay="0.00" arrival="105.00" arrivalLane="4074531#0_0" arrivalPos="129.52" arrivalSpeed="6.67" duration="25.00" routeLength="172.81" waitingTime="0.00" waitingCount="0" stopTime="0.00" timeLoss="2.20" rerouteNo="0" devices="tripinfo_694_3.172" vType="DEFAULT_VEHTYPE" speedFactor="0.95" vaporized=""/>
    <tripinfo id="158_2.374" depart="80.00" departLane="-3791745#3_1" departPos="37.39" departSpeed="8.65" departDelay="0.00" arrival="106.00" arrivalLane="-43538577#3_0" arrivalPos="66.08" arrivalSpeed="7.69" duration="26.00" routeLength="129.82" waitingTime="4.00" waitingCount="1" stopTime="0.00" timeLoss="10.83" rerouteNo="0" devices="tripinfo_158_2.374" vType="DEFAULT_VEHTYPE" speedFactor="1.04" vaporized=""/>
    <tripinfo id="361_5.170" depart="72.00" departLane="3791031#0_1" departPos="70.85" departSpeed="8.89" departDelay="0.56" arrival="109.00" arrivalLane="4074531#0_1" arrivalPos="129.52" arrivalSpeed="8.68" duration="37.00" routeLength="193.97" waitingTime="9.00" waitingCount="1" stopTime="0.00" timeLoss="14.15" rerouteNo="0" devices="tripinfo_361_5.170" vType="DEFAULT_VEHTYPE" speedFactor="1.07" vaporized=""/>
    <tripinfo id="240_2.161" depart="71.00" departLane="3791031#0_0" departPos="92.89" departSpeed="7.28" departDelay="0.22" arrival="113.00" arrivalLane="4074531#0_0" arrivalPos="129.52" arrivalSpeed="7.02" duration="42.00" routeLength="177.86" waitingTime="11.00" waitingCount="1" stopTime="0.00" timeLoss="17.33" rerouteNo="0" devices="tripinfo_240_2.161" vType="DEFAULT_VEHTYPE" speedFactor="0.87" vaporized=""/>
    <tripinfo id="79_6.174" depart="88.00" departLane="-77616869#2_0" departPos="68.65" departSpeed="10.15" departDelay="0.95" arrival="113.00" arrivalLane="-43321718#3_0" arrivalPos="37.17" arrivalSpeed="9.95" duration="25.00" routeLength="235.70" waitingTime="0.00" waitingCount="0" stopTime="0.00" timeLoss="2.42" rerouteNo="0" devices="tripinfo_79_6.174" vType="DEFAULT_VEHTYPE" speedFactor="1.22" vaporized=""/>
    <tripinfo id="28_4.231" depart="69.00" departLane="230483152#0_0" departPos="55.77" departSpeed="6.61" departDelay="0.18" arrival="118.00" arrivalLane="4475731_0" arrivalPos="161.35" arrivalSpeed="5.38" duration="49.00" routeLength="281.58" waitingTime="0.00" waitingCount="0" stopTime="0.00" timeLoss="5.41" rerouteNo="0" devices="tripinfo_28_4.231" vType="DEFAULT_VEHTYPE" speedFactor="0.79" vaporized=""/>
    <tripinfo id="171_3.429" depart="85.00" departLane="43321718#3_0" departPos="22.39" departSpeed="8.26" departDelay="0.44" arrival="123.00" arrivalLane="77616869#0_0" arrivalPos="90.89" arrivalSpeed="7.03" duration="38.00" routeLength="287.11" waitingTime="0.00" waitingCount="0" stopTime="0.00" timeLoss="4.32" rerouteNo="0" devices="tripinfo_171_3.429" vType="DEFAULT_VEHTYPE" speedFactor="0.99" vaporized=""/>
    <tripinfo id="72_5.400" depart="47.00" departLane="22962979_0" departPos="77.46" departSpeed="8.15" departDelay="0.17" arrival="127.00" arrivalLane="8080823#0_0" arrivalPos="112.35" arrivalSpeed="6.98" duration="80.00" routeLength="592.88" waitingTime="0.00" waitingCount="0" stopTime="0.00" timeLoss="7.92" rerouteNo="0" devices="tripinfo_72_5.400" vType="DEFAULT_VEHTYPE" speedFactor="0.98" vaporized=""/>
    <tripinfo id="25_1.90" depart="99.00" departLane="230483152#0_0" departPos="130.29" departSpeed="7.62" departDelay="0.18" arrival="130.00" arrivalLane="4475731_0" arrivalPos="161.35" arrivalSpeed="7.16" duration="31.00" routeLength="207.06" waitingTime="0.00" waitingCount="0" stopTime="0.00" timeLoss="2.77" rerouteNo="0" devices="tripinfo_25_1.90" vType="DEFAULT_VEHTYPE" speedFactor="0.91" vaporized=""/>
    <tripinfo id="633_2.200" depart="104.00" departLane="229823258_0" departPos="0.32" departSpeed="5.49" departDelay="0.00" arrival="130.00" arrivalLane="369977731_0" arrivalPos="101.59" arrivalSpeed="8.64" duration="26.00" routeLength="208.84" waitingTime="0.00" waitingCount="0" stopTime="0.00" timeLoss="2.65" rerouteNo="0" devices="tripinfo_633_2.200" vType="DEFAULT_VEHTYPE" speedFactor="1.09" vaporized=""/>
    <tripinfo id="402_3.706" depart="102.00" departLane="43321718#3_0" departPos="27.49" departSpeed="8.61" departDelay="0.73" arrival="135.00" arrivalLane="369977731_0" arrivalPos="101.59" arrivalSpeed="8.55" duration="33.00" routeLength="254.75" waitingTime="0.00" waitingCount="0" stopTime="0.00" timeLoss="3.47" rerouteNo="0" devices="tripinfo_402_3.706" vType="DEFAULT_VEHTYPE" speedFactor="1.03" vaporized=""/>
    <tripinfo id="1273_1.313" depart="10.00" departLane="4472590#0_1" departPos="192.59" departSpeed="7.01" departDelay="0.78" arrival="136.00" arrivalLane="-43321718#3_0" arrivalPos="37.17" arrivalSpeed="6.52" duration="126.00" routeLength="717.54" waitingTime="11.00" waitingCount="1" stopTime="0.00" timeLoss="25.30" rerouteNo="0" devices="tripinfo_1273_1.313" vType="DEFAULT_VEHTYPE" speedFactor="0.84" vaporized=""/>
    <tripinfo id="645_5.944" depart="133.00" departLane="43321718#3_0" departPos="31.42" departSpeed="8.91" departDelay="0.65" arrival="137.00" arrivalLane="43321722_0" arrivalPos="14.17" arrivalSpeed="8.81" duration="4.00" routeLength="27.75" waitingTime="0.00" waitingCount="0" stopTime="0.00" timeLoss="0.16" rerouteNo="0" devices="tripinfo_645_5.944" vType="DEFAULT_VEHTYPE" speedFactor="1.07" vaporized=""/>
    <tripinfo id="693_1.532" depart="80.00" departLane="26545993#0_0" departPos="44.64" departSpeed="7.82" departDelay="0.00" arrival="138.00" arrivalLane="4074531#0_0" arrivalPos="129.52" arrivalSpeed="7.41" duration="58.00" routeLength="222.68" waitingTime="24.00" waitingCount="1" stopTime="0.00" timeLoss="28.97" rerouteNo="0" devices="tripinfo_693_1.532" vType="DEFAULT_VEHTYPE" speedFactor="0.94" vaporized=""/>
    <tripinfo id="158_2.375" depart="120.00" departLane="-3791745#3_1" departPos="14.24" departSpeed="8.78" departDelay="0.00" arrival="139.00" arrivalLane="-43538577#3_0" arrivalPos="66.08" arrivalSpeed="7.72" duration="19.00" routeLength="152.97" waitingTime="0.00" waitingCount="0" stopTime="0.00" timeLoss="1.49" rerouteNo="0" devices="tripinfo_158_2.375" vType="DEFAULT_VEHTYPE" speedFactor="1.05" vaporized=""/>
    <tripinfo id="635_4.161" depart="106.00" departLane="229823258_0" departPos="6.48" departSpeed="0.31" departDelay="2.00" arrival="140.00" arrivalLane="369977731_0" arrivalPos="101.59" arrivalSpeed="6.99" duration="34.00" routeLength="202.68" waitingTime="4.00" waitingCount="2" stopTime="0.00" timeLoss="8.50" rerouteNo="0" devices="tripinfo_635_4.161" vType="DEFAULT_VEHTYPE" speedFactor="0.97" vaporized=""/>
    <tripinfo id="501_2.401" depart="66.00" departLane="43321718#3_0" departPos="4.31" departSpeed="7.96" departDelay="0.12" arrival="141.00" arrivalLane="8080823#0_0" arrivalPos="112.35" arrivalSpeed="7.65" duration="75.00" routeLength="429.97" waitingTime="7.00" waitingCount="2" stopTime="0.00" timeLoss="21.90" rerouteNo="0" devices="tripinfo_501_2.401" vType="DEFAULT_VEHTYPE" speedFactor="0.96" vaporized=""/>
    <tripinfo id="Ambulance_1" depart="120.00" departLane="-3791031#3_0" departPos="5.10" departSpeed="0.00" departDelay="0.00" arrival="141.00" arrivalLane="-3791031#3_0" arrivalPos="125.07" arrivalSpeed="5.69" duration="21.00" routeLength="119.97" waitingTime="0.00" waitingCount="0" stopTime="0.00" timeLoss="5.48" rerouteNo="0" devices="tripinfo_Ambulance_1" vType="Ambulance" speedFactor="0.94" vaporized=""/>
    <tripinfo id="1274_2.129" depart="10.00" departLane="4472590#0_1" departPos="118.43" departSpeed="6.94" departDelay="0.78" arrival="143.00" arrivalLane="-43321718#3_0" arrivalPos="37.17" arrivalSpeed="6.21" duration="133.00" routeLength="791.70" waitingTime="0.00" waitingCount="0" stopTime="0.00" timeLoss="19.80" rerouteNo="0" devices="tripinfo_1274_2.129" vType="DEFAULT_VEHTYPE" speedFactor="0.83" vaporized=""/>
    <tripinfo id="124_3.153" depart="140.00" departLane="-3791031#3_0" departPos="111.05" departSpeed="3.57" departDelay="0.00" arrival="143.00" arrivalLane="-3791031#3_0" arrivalPos="125.07" arrivalSpeed="7.31" duration="3.00" routeLength="14.02" waitingTime="0.00" waitingCount="0" stopTime="0.00" timeLoss="1.22" rerouteNo="0" devices="tripinfo_124_3.153" vType="DEFAULT_VEHTYPE" speedFactor="1.05" vaporized=""/>
    <tripinfo id="FuelTruck_0" depart="120.00" departLane="-3791745#3_0" departPos="10.10" departSpeed="0.00" departDelay="0.00" arrival="144.00" arrivalLane="-43538577#3_0" arrivalPos="66.08" arrivalSpeed="7.14" duration="24.00" routeLength="157.11" waitingTime="0.00" waitingCount="0" stopTime="0.00" timeLoss="5.39" rerouteNo="0" devices="tripinfo_FuelTruck_0" vType="fueltruck" speedFactor="1.05" vaporized=""/>
    <tripinfo id="125_4.118" depart="140.00" departLane="-3791031#3_0" departPos="92.06" departSpeed="8.00" departDelay="0.00" arrival="145.00" arrivalLane="-3791031#3_0" arrivalPos="125.07" arrivalSpeed="7.90" duration="5.00" routeLength="33.01" waitingTime="0.00" waitingCount="0" stopTime="0.00" timeLoss="0.91" rerouteNo="0" devices="tripinfo_125_4.118" vType="DEFAULT_VEHTYPE" speedFactor="0.97" vaporized=""/>
    <tripinfo id="Trailer_0" depart="120.00" departLane="229823258_0" departPos="6.80" departSpeed="0.00" departDelay="0.00" arrival="152.00" arrivalLane="369977731_0" arrivalPos="101.59" arrivalSpeed="7.39" duration="32.00" routeLength="202.36" waitingTime="0.00" waitingCount="0" stopTime="0.00" timeLoss="7.04" rerouteNo="0" devices="tripinfo_Trailer_0" vType="trailer" speedFactor="0.99" vaporized=""/>
    <tripinfo id="431_2.223" depart="13.00" departLane="4472590#0_1" departPos="175.06" departSpeed="8.44" departDelay="0.77" arrival="155.00" arrivalLane="369977731_0" arrivalPos="101.59" arrivalSpeed="7.88" duration="142.00" routeLength="871.00" waitingTime="18.00" waitingCount="1" stopTime="0.00" timeLoss="38.64" rerouteNo="0" devices="tripinfo_431_2.223" vType="DEFAULT_VEHTYPE" speedFactor="1.01" vaporized=""/>
    <tripinfo id="358_1.145" depart="102.00" departLane="3791031#0_0" departPos="14.99" departSpeed="7.52" departDelay="0.56" arrival="155.00" arrivalLane="4074531#0_0" arrivalPos="129.52" arrivalSpeed="6.71" duration="53.00" routeLength="255.76" waitingTime="12.00" waitingCount="1" stopTime="0.00" timeLoss="18.59" rerouteNo="0" devices="tripinfo_358_1.145" vType="DEFAULT_VEHTYPE" speedFactor="0.90" vaporized=""/>
    <tripinfo id="357_2.178" depart="32.00" departLane="3792490#0_1" departPos="78.22" departSpeed="9.26" departDelay="0.00" arrival="166.00" arrivalLane="4628796#1_0" arrivalPos="258.84" arrivalSpeed="8.10" duration="134.00" routeLength="723.21" waitingTime="31.00" waitingCount="2" stopTime="0.00" timeLoss="57.61" rerouteNo="0" devices="tripinfo_357_2.178" vType="DEFAULT_VEHTYPE" speedFactor="1.11" vaporized=""/>
    <tripinfo id="634_3.161" depart="140.00" departLane="229823258_0" departPos="4.04" departSpeed="2.76" departDelay="0.00" arrival="167.00" arrivalLane="369977731_0" arrivalPos="101.59" arrivalSpeed="7.60" duration="27.00" routeLength="205.12" waitingTime="0.00" waitingCount="0" stopTime="0.00" timeLoss="2.97" rerouteNo="0" devices="tripinfo_634_3.161" vType="DEFAULT_VEHTYPE" speedFactor="1.04" vaporized=""/>
    <tripinfo id="356_1.1490" depart="12.00" departLane="3792490#0_1" departPos="65.96" departSpeed="7.95" departDelay="0.57" arrival="168.00" arrivalLane="4628796#1_0" arrivalPos="258.84" arrivalSpeed="6.98" duration="156.00" routeLength="735.47" waitingTime="48.00" waitingCount="2" stopTime="0.00" timeLoss="66.02" rerouteNo="0" devices="tripinfo_356_1.1490" vType="DEFAULT_VEHTYPE" speedFactor="0.95" vaporized=""/>
    <tripinfo id="Ambulance_0" depart="120.00" departLane="230483152#0_0" departPos="5.10" departSpeed="0.00" departDelay="0.00" arrival="168.00" arrivalLane="4475731_0" arrivalPos="161.35" arrivalSpeed="7.61" duration="48.00" routeLength="332.25" waitingTime="0.00" waitingCount="0" stopTime="0.00" timeLoss="10.20" rerouteNo="0" devices="tripinfo_Ambulance_0" vType="Ambulance" speedFactor="1.07" vaporized=""/>
    <tripinfo id="356_1.1495" depart="140.00" departLane="3792490#0_0" departPos="30.14" departSpeed="8.18" departDelay="0.00" arrival="171.00" arrivalLane="3792491#0_0" arrivalPos="137.26" arrivalSpeed="7.65" duration="31.00" routeLength="232.96" waitingTime="0.00" waitingCount="0" stopTime="0.00" timeLoss="2.51" rerouteNo="0" devices="tripinfo_356_1.1495" vType="DEFAULT_VEHTYPE" speedFactor="0.98" vaporized=""/>
    <tripinfo id="76_3.136" depart="118.00" departLane="-77616869#2_0" departPos="12.67" departSpeed="8.75" departDelay="0.95" arrival="172.00" arrivalLane="369977731_0" arrivalPos="101.59" arrivalSpeed="7.84" duration="54.00" routeLength="432.40" waitingTime="0.00" waitingCount="0" stopTime="0.00" timeLoss="5.58" rerouteNo="0" devices="tripinfo_76_3.136" vType="DEFAULT_VEHTYPE" speedFactor="1.05" vaporized=""/>
    <tripinfo id="158_2.376" depart="160.00" departLane="-3791745#3_1" departPos="57.35" departSpeed="8.08" departDelay="0.00" arrival="175.00" arrivalLane="-43538577#3_0" arrivalPos="66.08" arrivalSpeed="7.77" duration="15.00" routeLength="109.86" waitingTime="0.00" waitingCount="0" stopTime="0.00" timeLoss="1.13" rerouteNo="0" devices="tripinfo_158_2.376" vType="DEFAULT_VEHTYPE" speedFactor="0.97" vaporized=""/>
    <tripinfo id="108_3.265" depart="73.00" departLane="22962979_0" departPos="74.65" departSpeed="8.28" departDelay="0.85" arrival="176.00" arrivalLane="128944693#1_0" arrivalPos="29.63" arrivalSpeed="6.06" duration="103.00" routeLength="695.53" waitingTime="0.00" waitingCount="0" stopTime="0.00" timeLoss="16.15" rerouteNo="0" devices="tripinfo_108_3.265" vType="DEFAULT_VEHTYPE" speedFactor="0.99" vaporized=""/>
    <tripinfo id="544_4.217" depart="20.00" departLane="2110697#0_0" departPos="148.95" departSpeed="8.06" departDelay="0.00" arrival="177.00" arrivalLane="369977731_0" arrivalPos="101.59" arrivalSpeed="6.77" duration="157.00" routeLength="472.68" waitingTime="84.00" waitingCount="2" stopTime="0.00" timeLoss="97.39" rerouteNo="0" devices="tripinfo_544_4.217" vType="DEFAULT_VEHTYPE" speedFactor="0.97" vaporized=""/>
    <tripinfo id="FuelTruck_1" depart="120.00" departLane="26545993#0_1" departPos="10.10" departSpeed="0.00" departDelay="0.00" arrival="179.00" arrivalLane="4074531#0_0" arrivalPos="129.52" arrivalSpeed="6.27" duration="59.00" routeLength="257.22" waitingTime="17.00" waitingCount="1" stopTime="0.00" timeLoss="28.53" rerouteNo="0" devices="tripinfo_FuelTruck_1" vType="fueltruck" speedFactor="1.04" vaporized=""/>
    <tripinfo id="627_1.949" depart="111.00" departLane="43321718#3_0" departPos="9.89" departSpeed="8.22" departDelay="0.29" arrival="183.00" arrivalLane="8080823#0_0" arrivalPos="112.35" arrivalSpeed="7.85" duration="72.00" routeLength="424.39" waitingTime="11.00" waitingCount="1" stopTime="0.00" timeLoss="20.67" rerouteNo="0" devices="tripinfo_627_1.949" vType="DEFAULT_VEHTYPE" speedFactor="0.99" vaporized=""/>
    <tripinfo id="157_1.293" depart="104.00" departLane="3791745#0_1" departPos="45.78" departSpeed="8.78" departDelay="0.00" arrival="184.00" arrivalLane="-238740928#2_0" arrivalPos="59.62" arrivalSpeed="7.81" duration="80.00" routeLength="629.11" waitingTime="0.00" waitingCount="0" stopTime="0.00" timeLoss="7.70" rerouteNo="0" devices="tripinfo_157_1.293" vType="DEFAULT_VEHTYPE" speedFactor="1.05" vaporized=""/>
    <tripinfo id="Trailer_2" depart="120.00" departLane="317003249#1_1" departPos="10.10" departSpeed="0.00" departDelay="0.00" arrival="185.00" arrivalLane="-43538577#3_0" arrivalPos="66.08" arrivalSpeed="7.63" duration="65.00" routeLength="201.96" waitingTime="27.00" waitingCount="1" stopTime="0.00" timeLoss="38.65" rerouteNo="0" devices="tripinfo_Trailer_2" vType="trailer" speedFactor="0.93" vaporized=""/>
    <tripinfo id="543_1.407" depart="50.00" departLane="2110697#0_0" departPos="115.86" departSpeed="7.87" departDelay="0.00" arrival="186.00" arrivalLane="-43321718#3_0" arrivalPos="37.17" arrivalSpeed="6.99" duration="136.00" routeLength="538.30" waitingTime="51.00" waitingCount="2" stopTime="0.00" timeLoss="66.25" rerouteNo="0" devices="tripinfo_543_1.407" vType="DEFAULT_VEHTYPE" speedFactor="0.94" vaporized=""/>
    <tripinfo id="718_3.170" depart="140.00" departLane="317003249#1_0" departPos="61.13" departSpeed="8.20" departDelay="0.00" arrival="188.00" arrivalLane="-43538577#3_0" arrivalPos="66.08" arrivalSpeed="7.60" duration="48.00" routeLength="150.93" waitingTime="20.00" waitingCount="1" stopTime="0.00" timeLoss="29.22" rerouteNo="0" devices="tripinfo_718_3.170" vType="DEFAULT_VEHTYPE" speedFactor="0.98" vaporized=""/>
    <tripinfo id="28_4.232" depart="159.00" departLane="230483152#0_0" departPos="138.15" departSpeed="7.63" departDelay="0.18" arrival="189.00" arrivalLane="4475731_0" arrivalPos="161.35" arrivalSpeed="6.59" duration="30.00" routeLength="199.20" waitingTime="0.00" waitingCount="0" stopTime="0.00" timeLoss="2.95" rerouteNo="0" devices="tripinfo_28_4.232" vType="DEFAULT_VEHTYPE" speedFactor="0.92" vaporized=""/>
    <tripinfo id="1087_2.119" depart="80.00" departLane="554991019_0" departPos="36.31" departSpeed="7.76" departDelay="0.00" arrival="191.00" arrivalLane="-43538577#3_0" arrivalPos="66.08" arrivalSpeed="7.48" duration="111.00" routeLength="533.61" waitingTime="24.00" waitingCount="2" stopTime="0.00" timeLoss="40.17" rerouteNo="0" devices="tripinfo_1087_2.119" vType="DEFAULT_VEHTYPE" speedFactor="0.93" vaporized=""/>
    <tripinfo id="544_4.218" depart="80.00" departLane="2110697#0_0" departPos="6.00" departSpeed="7.15" departDelay="0.00" arrival="191.00" arrivalLane="-43321718#3_0" arrivalPos="37.17" arrivalSpeed="6.00" duration="111.00" routeLength="648.16" waitingTime="4.00" waitingCount="1" stopTime="0.00" timeLoss="19.25" rerouteNo="0" devices="tripinfo_544_4.218" vType="DEFAULT_VEHTYPE" speedFactor="0.86" vaporized=""/>
    <tripinfo id="543_1.408" depart="95.00" departLane="2110697#0_0" departPos="71.14" departSpeed="9.46" departDelay="0.00" arrival="193.00" arrivalLane="-43321718#3_0" arrivalPos="37.17" arrivalSpeed="8.40" duration="98.00" routeLength="583.02" waitingTime="2.00" waitingCount="1" stopTime="0.00" timeLoss="35.98" rerouteNo="0" devices="tripinfo_543_1.408" vType="DEFAULT_VEHTYPE" speedFactor="1.14" vaporized=""/>
    <tripinfo id="1088_3.563" depart="104.00" departLane="554991019_0" departPos="4.45" departSpeed="8.56" departDelay="0.00" arrival="193.00" arrivalLane="-43538577#3_0" arrivalPos="66.08" arrivalSpeed="7.99" duration="89.00" routeLength="565.47" waitingTime="10.00" waitingCount="1" stopTime="0.00" timeLoss="21.31" rerouteNo="0" devices="tripinfo_1088_3.563" vType="DEFAULT_VEHTYPE" speedFactor="1.03" vaporized=""/>
    <tripinfo id="693_1.534" depart="160.00" departLane="26545993#0_0" departPos="46.11" departSpeed="10.15" departDelay="0.00" arrival="194.00" arrivalLane="4074531#0_0" arrivalPos="129.52" arrivalSpeed="9.42" duration="34.00" routeLength="221.21" waitingTime="7.00" waitingCount="1" stopTime="0.00" timeLoss="12.08" rerouteNo="0" devices="tripinfo_693_1.534" vType="DEFAULT_VEHTYPE" speedFactor="1.22" vaporized=""/>
    <tripinfo id="70_1.497" depart="86.00" departLane="22962979_0" departPos="45.49" departSpeed="8.14" departDelay="0.99" arrival="202.00" arrivalLane="8080823#0_0" arrivalPos="112.35" arrivalSpeed="8.13" duration="116.00" routeLength="624.85" waitingTime="29.00" waitingCount="1" stopTime="0.00" timeLoss="39.51" rerouteNo="0" devices="tripinfo_70_1.497" vType="DEFAULT_VEHTYPE" speedFactor="0.98" vaporized=""/>
    <tripinfo id="115_2.391" depart="152.00" departLane="43321718#3_0" departPos="14.82" departSpeed="8.61" departDelay="0.59" arrival="202.00" arrivalLane="77616869#0_0" arrivalPos="90.89" arrivalSpeed="8.30" duration="50.00" routeLength="294.68" waitingTime="3.00" waitingCount="1" stopTime="0.00" timeLoss="16.90" rerouteNo="0" devices="tripinfo_115_2.391" vType="DEFAULT_VEHTYPE" speedFactor="1.03" vaporized=""/>
    <tripinfo id="151_2.343" depart="172.00" departLane="-77616869#2_0" departPos="87.83" departSpeed="2.07" departDelay="0.54" arrival="203.00" arrivalLane="14039609#0_0" arrivalPos="69.48" arrivalSpeed="7.03" duration="31.00" routeLength="85.65" waitingTime="15.00" waitingCount="1" stopTime="0.00" timeLoss="20.27" rerouteNo="0" devices="tripinfo_151_2.343" vType="DEFAULT_VEHTYPE" speedFactor="0.97" vaporized=""/>
    <tripinfo id="72_5.401" depart="107.00" departLane="22962979_0" departPos="16.52" departSpeed="10.02" departDelay="0.17" arrival="204.00" arrivalLane="8080823#0_0" arrivalPos="112.35" arrivalSpeed="9.13" duration="97.00" routeLength="653.82" waitingTime="8.00" waitingCount="1" stopTime="0.00" timeLoss="31.78" rerouteNo="0" devices="tripinfo_72_5.401" vType="DEFAULT_VEHTYPE" speedFactor="1.20" vaporized=""/>
    <tripinfo id="70_1.498" depart="118.00" departLane="22962979_0" departPos="9.45" departSpeed="8.94" departDelay="0.26" arrival="206.00" arrivalLane="8080823#0_0" arrivalPos="112.35" arrivalSpeed="8.25" duration="88.00" routeLength="660.89" waitingTime="0.00" waitingCount="0" stopTime="0.00" timeLoss="14.58" rerouteNo="0" devices="tripinfo_70_1.498" vType="DEFAULT_VEHTYPE" speedFactor="1.07" vaporized=""/>
    <tripinfo id="1086_1.181" depart="140.00" departLane="554991019_0" departPos="71.11" departSpeed="8.48" departDelay="0.00" arrival="206.00" arrivalLane="-43538577#3_0" arrivalPos="66.08" arrivalSpeed="7.61" duration="66.00" routeLength="498.81" waitingTime="0.00" waitingCount="0" stopTime="0.00" timeLoss="6.41" rerouteNo="0" devices="tripinfo_1086_1.181" vType="DEFAULT_VEHTYPE" speedFactor="1.02" vaporized=""/>