<?xml version="1.0" encoding="UTF-8"?>

<!-- generated on 2023-03-14 17:40:32 by Eclipse SUMO sumo Version 1.14.1
<configuration xmlns:xsi="http://www.w3.org/2001/XMLSchema-instance" xsi:noNamespaceSchemaLocation="http://sumo.dlr.de/xsd/sumoConfiguration.xsd">

    <input>
        <net-file value="/Users/gjy/OITSC_Urban/nets/1km/selected1km.net.xml"/>
        <route-files value="/Users/gjy/OITSC_Urban/nets/1km/selected1km_1kSec.rou.xml"/>
    </input>

    <output>
        <tripinfo-output value="ImportantObservation-QL-tripinfo-baseline-run1.xml"/>
    </output>

    <processing>
        <time-to-teleport value="-1"/>
        <waiting-time-memory value="10000"/>
    </processing>

    <traci_server>
        <remote-port value="57522"/>
    </traci_server>

    <random_number>
        <random value="true"/>
    </random_number>

</configuration>
-->

<tripinfos xmlns:xsi="http://www.w3.org/2001/XMLSchema-instance" xsi:noNamespaceSchemaLocation="http://sumo.dlr.de/xsd/tripinfo_file.xsd">
    <tripinfo id="158_2.372" depart="0.00" departLane="-3791745#3_1" departPos="29.55" departSpeed="8.25" departDelay="0.00" arrival="19.00" arrivalLane="-43538577#3_0" arrivalPos="66.08" arrivalSpeed="7.20" duration="19.00" routeLength="137.66" waitingTime="0.00" waitingCount="0" stopTime="0.00" timeLoss="1.87" rerouteNo="0" devices="tripinfo_158_2.372" vType="DEFAULT_VEHTYPE" speedFactor="0.99" vaporized=""/>
    <tripinfo id="158_2.373" depart="40.00" departLane="-3791745#3_1" departPos="57.76" departSpeed="8.53" departDelay="0.00" arrival="54.00" arrivalLane="-43538577#3_0" arrivalPos="66.08" arrivalSpeed="8.31" duration="14.00" routeLength="109.45" waitingTime="0.00" waitingCount="0" stopTime="0.00" timeLoss="0.92" rerouteNo="0" devices="tripinfo_158_2.373" vType="DEFAULT_VEHTYPE" speedFactor="1.02" vaporized=""/>
    <tripinfo id="643_1.463" depart="24.00" departLane="22962979_0" departPos="59.84" departSpeed="7.97" departDelay="0.22" arrival="59.00" arrivalLane="532427444#4_0" arrivalPos="73.98" arrivalSpeed="7.42" duration="35.00" routeLength="116.07" waitingTime="15.00" waitingCount="1" stopTime="0.00" timeLoss="19.69" rerouteNo="0" devices="tripinfo_643_1.463" vType="DEFAULT_VEHTYPE" speedFactor="0.96" vaporized=""/>
    <tripinfo id="635_4.160" depart="32.00" departLane="229823258_0" departPos="5.85" departSpeed="0.94" departDelay="0.00" arrival="59.00" arrivalLane="369977731_0" arrivalPos="101.59" arrivalSpeed="8.11" duration="27.00" routeLength="203.31" waitingTime="0.00" waitingCount="0" stopTime="0.00" timeLoss="3.05" rerouteNo="0" devices="tripinfo_635_4.160" vType="DEFAULT_VEHTYPE" speedFactor="1.02" vaporized=""/>
    <tripinfo id="693_1.530" depart="0.00" departLane="26545993#0_0" departPos="122.53" departSpeed="5.49" departDelay="0.00" arrival="63.00" arrivalLane="4074531#0_0" arrivalPos="129.52" arrivalSpeed="8.40" duration="63.00" routeLength="144.79" waitingTime="41.00" waitingCount="1" stopTime="0.00" timeLoss="46.09" rerouteNo="0" devices="tripinfo_693_1.530" vType="DEFAULT_VEHTYPE" speedFactor="1.06" vaporized=""/>
    <tripinfo id="356_1.1491" depart="38.00" departLane="3792490#0_0" departPos="16.38" departSpeed="10.19" departDelay="0.86" arrival="64.00" arrivalLane="3792491#0_0" arrivalPos="137.26" arrivalSpeed="10.17" duration="26.00" routeLength="246.72" waitingTime="0.00" waitingCount="0" stopTime="0.00" timeLoss="1.70" rerouteNo="0" devices="tripinfo_356_1.1491" vType="DEFAULT_VEHTYPE" speedFactor="1.22" vaporized=""/>
    <tripinfo id="112_3.327" depart="53.00" departLane="43321718#3_0" departPos="11.18" departSpeed="8.02" departDelay="0.79" arrival="64.00" arrivalLane="5976022_0" arrivalPos="2.38" arrivalSpeed="6.39" duration="11.00" routeLength="67.94" waitingTime="0.00" waitingCount="0" stopTime="0.00" timeLoss="2.13" rerouteNo="0" devices="tripinfo_112_3.327" vType="DEFAULT_VEHTYPE" speedFactor="0.96" vaporized=""/>
    <tripinfo id="115_2.389" depart="40.00" departLane="43321718#3_0" departPos="24.12" departSpeed="2.46" departDelay="0.59" arrival="68.00" arrivalLane="42636056_0" arrivalPos="44.42" arrivalSpeed="8.79" duration="28.00" routeLength="187.82" waitingTime="0.00" waitingCount="0" stopTime="0.00" timeLoss="8.57" rerouteNo="0" devices="tripinfo_115_2.389" vType="DEFAULT_VEHTYPE" speedFactor="1.13" vaporized=""/>
    <tripinfo id="113_4.864" depart="47.00" departLane="22962979_0" departPos="65.61" departSpeed="9.00" departDelay="0.93" arrival="73.00" arrivalLane="14152308_0" arrivalPos="25.16" arrivalSpeed="8.90" duration="26.00" routeLength="200.68" waitingTime="0.00" waitingCount="0" stopTime="0.00" timeLoss="2.48" rerouteNo="0" devices="tripinfo_113_4.864" vType="DEFAULT_VEHTYPE" speedFactor="1.08" vaporized=""/>
    <tripinfo id="718_3.169" depart="50.00" departLane="317003249#1_0" departPos="6.39" departSpeed="8.61" departDelay="0.00" arrival="77.00" arrivalLane="-43538577#3_0" arrivalPos="66.08" arrivalSpeed="8.51" duration="27.00" routeLength="205.67" waitingTime="0.00" waitingCount="0" stopTime="0.00" timeLoss="2.06" rerouteNo="0" devices="tripinfo_718_3.169" vType="DEFAULT_VEHTYPE" speedFactor="1.03" vaporized=""/>
    <tripinfo id="634_3.160" depart="50.00" departLane="229823258_0" departPos="5.92" departSpeed="0.87" departDelay="0.00" arrival="77.00" arrivalLane="369977731_0" arrivalPos="101.59" arrivalSpeed="8.39" duration="27.00" routeLength="203.24" waitingTime="0.00" waitingCount="0" stopTime="0.00" timeLoss="3.18" rerouteNo="0" devices="tripinfo_634_3.160" vType="DEFAULT_VEHTYPE" speedFactor="1.03" vaporized=""/>
    <tripinfo id="645_5.942" depart="72.00" departLane="22962979_0" departPos="64.20" departSpeed="8.32" departDelay="0.22" arrival="88.00" arrivalLane="532427444#4_0" arrivalPos="73.98" arrivalSpeed="8.24" duration="16.00" routeLength="111.71" waitingTime="0.00" waitingCount="0" stopTime="0.00" timeLoss="1.41" rerouteNo="0" devices="tripinfo_645_5.942" vType="DEFAULT_VEHTYPE" speedFactor="1.00" vaporized=""/>
    <tripinfo id="462_7.356" depart="53.00" departLane="43321718#3_0" departPos="28.40" departSpeed="8.56" departDelay="0.53" arrival="90.00" arrivalLane="38192815_0" arrivalPos="87.29" arrivalSpeed="7.62" duration="37.00" routeLength="279.89" waitingTime="0.00" waitingCount="0" stopTime="0.00" timeLoss="4.30" rerouteNo="0" devices="tripinfo_462_7.356" vType="DEFAULT_VEHTYPE" speedFactor="1.03" vaporized=""/>
    <tripinfo id="543_1.406" depart="5.00" departLane="2110697#0_0" departPos="281.82" departSpeed="8.45" departDelay="0.00" arrival="92.00" arrivalLane="8080823#0_0" arrivalPos="112.35" arrivalSpeed="8.44" duration="87.00" routeLength="653.85" waitingTime="0.00" waitingCount="0" stopTime="0.00" timeLoss="8.84" rerouteNo="0" devices="tripinfo_543_1.406" vType="DEFAULT_VEHTYPE" speedFactor="1.01" vaporized=""/>
    <tripinfo id="356_1.1492" depart="63.00" departLane="3792490#0_0" departPos="46.02" departSpeed="7.77" departDelay="0.14" arrival="94.00" arrivalLane="3792491#0_0" arrivalPos="137.26" arrivalSpeed="6.77" duration="31.00" routeLength="217.08" waitingTime="0.00" waitingCount="0" stopTime="0.00" timeLoss="2.26" rerouteNo="0" devices="tripinfo_356_1.1492" vType="DEFAULT_VEHTYPE" speedFactor="0.93" vaporized=""/>
    <tripinfo id="158_2.374" depart="80.00" departLane="-3791745#3_1" departPos="8.86" departSpeed="7.97" departDelay="0.00" arrival="105.00" arrivalLane="-43538577#3_0" arrivalPos="66.08" arrivalSpeed="7.21" duration="25.00" routeLength="158.35" waitingTime="1.00" waitingCount="1" stopTime="0.00" timeLoss="4.83" rerouteNo="0" devices="tripinfo_158_2.374" vType="DEFAULT_VEHTYPE" speedFactor="0.96" vaporized=""/>
    <tripinfo id="632_1.168" depart="80.00" departLane="229823258_0" departPos="2.99" departSpeed="3.81" departDelay="0.00" arrival="106.00" arrivalLane="369977731_0" arrivalPos="101.59" arrivalSpeed="8.20" duration="26.00" routeLength="206.17" waitingTime="0.00" waitingCount="0" stopTime="0.00" timeLoss="2.23" rerouteNo="0" devices="tripinfo_632_1.168" vType="DEFAULT_VEHTYPE" speedFactor="1.06" vaporized=""/>
    <tripinfo id="28_4.231" depart="69.00" departLane="230483152#0_0" departPos="27.48" departSpeed="8.92" departDelay="0.18" arrival="108.00" arrivalLane="4475731_0" arrivalPos="161.35" arrivalSpeed="8.19" duration="39.00" routeLength="309.87" waitingTime="0.00" waitingCount="0" stopTime="0.00" timeLoss="3.24" rerouteNo="0" devices="tripinfo_28_4.231" vType="DEFAULT_VEHTYPE" speedFactor="1.07" vaporized=""/>
    <tripinfo id="240_2.161" depart="71.00" departLane="3791031#0_0" departPos="97.70" departSpeed="9.75" departDelay="0.22" arrival="108.00" arrivalLane="4074531#0_0" arrivalPos="129.52" arrivalSpeed="9.36" duration="37.00" routeLength="173.05" waitingTime="12.00" waitingCount="1" stopTime="0.00" timeLoss="18.83" rerouteNo="0" devices="tripinfo_240_2.161" vType="DEFAULT_VEHTYPE" speedFactor="1.17" vaporized=""/>
    <tripinfo id="503_5.745" depart="36.00" departLane="43321718#3_0" departPos="6.13" departSpeed="7.43" departDelay="0.91" arrival="109.00" arrivalLane="8080823#0_0" arrivalPos="112.35" arrivalSpeed="6.80" duration="73.00" routeLength="428.15" waitingTime="3.00" waitingCount="1" stopTime="0.00" timeLoss="16.12" rerouteNo="0" devices="tripinfo_503_5.745" vType="DEFAULT_VEHTYPE" speedFactor="0.89" vaporized=""/>
    <tripinfo id="361_5.170" depart="72.00" departLane="3791031#0_1" departPos="112.31" departSpeed="7.27" departDelay="0.56" arrival="113.00" arrivalLane="4074531#0_0" arrivalPos="129.52" arrivalSpeed="6.81" duration="41.00" routeLength="152.51" waitingTime="13.00" waitingCount="1" stopTime="0.00" timeLoss="18.75" rerouteNo="0" devices="tripinfo_361_5.170" vType="DEFAULT_VEHTYPE" speedFactor="0.87" vaporized=""/>
    <tripinfo id="501_2.401" depart="66.00" departLane="43321718#3_0" departPos="18.49" departSpeed="8.72" departDelay="0.12" arrival="119.00" arrivalLane="8080823#0_0" arrivalPos="112.35" arrivalSpeed="8.27" duration="53.00" routeLength="415.79" waitingTime="0.00" waitingCount="0" stopTime="0.00" timeLoss="5.28" rerouteNo="0" devices="tripinfo_501_2.401" vType="DEFAULT_VEHTYPE" speedFactor="1.05" vaporized=""/>
    <tripinfo id="358_1.145" depart="102.00" departLane="3791031#0_0" departPos="110.72" departSpeed="9.42" departDelay="0.56" arrival="121.00" arrivalLane="4074531#0_0" arrivalPos="129.52" arrivalSpeed="8.18" duration="19.00" routeLength="160.03" waitingTime="0.00" waitingCount="0" stopTime="0.00" timeLoss="1.59" rerouteNo="0" devices="tripinfo_358_1.145" vType="DEFAULT_VEHTYPE" speedFactor="1.13" vaporized=""/>
    <tripinfo id="79_6.174" depart="88.00" departLane="-77616869#2_0" departPos="64.84" departSpeed="7.08" departDelay="0.95" arrival="126.00" arrivalLane="-43321718#3_0" arrivalPos="37.17" arrivalSpeed="6.00" duration="38.00" routeLength="239.51" waitingTime="0.00" waitingCount="0" stopTime="0.00" timeLoss="4.91" rerouteNo="0" devices="tripinfo_79_6.174" vType="DEFAULT_VEHTYPE" speedFactor="0.85" vaporized=""/>
    <tripinfo id="1274_2.129" depart="10.00" departLane="4472590#0_1" departPos="52.71" departSpeed="9.44" departDelay="0.78" arrival="130.00" arrivalLane="-43321718#3_0" arrivalPos="37.17" arrivalSpeed="9.27" duration="120.00" routeLength="857.42" waitingTime="14.00" waitingCount="1" stopTime="0.00" timeLoss="30.21" rerouteNo="0" devices="tripinfo_1274_2.129" vType="DEFAULT_VEHTYPE" speedFactor="1.13" vaporized=""/>
    <tripinfo id="171_3.429" depart="85.00" departLane="43321718#3_0" departPos="3.87" departSpeed="7.87" departDelay="0.44" arrival="130.00" arrivalLane="77616869#0_0" arrivalPos="90.89" arrivalSpeed="7.77" duration="45.00" routeLength="305.63" waitingTime="0.00" waitingCount="0" stopTime="0.00" timeLoss="6.66" rerouteNo="0" devices="tripinfo_171_3.429" vType="DEFAULT_VEHTYPE" speedFactor="0.95" vaporized=""/>
    <tripinfo id="25_1.90" depart="99.00" departLane="230483152#0_0" departPos="75.82" departSpeed="9.18" departDelay="0.18" arrival="131.00" arrivalLane="4475731_0" arrivalPos="161.35" arrivalSpeed="7.98" duration="32.00" routeLength="261.53" waitingTime="0.00" waitingCount="0" stopTime="0.00" timeLoss="2.42" rerouteNo="0" devices="tripinfo_25_1.90" vType="DEFAULT_VEHTYPE" speedFactor="1.10" vaporized=""/>
    <tripinfo id="1273_1.313" depart="10.00" departLane="4472590#0_1" departPos="21.83" departSpeed="9.47" departDelay="0.78" arrival="134.00" arrivalLane="-43321718#3_0" arrivalPos="37.17" arrivalSpeed="8.26" duration="124.00" routeLength="888.30" waitingTime="11.00" waitingCount="1" stopTime="0.00" timeLoss="30.71" rerouteNo="0" devices="tripinfo_1273_1.313" vType="DEFAULT_VEHTYPE" speedFactor="1.14" vaporized=""/>
    <tripinfo id="633_2.200" depart="104.00" departLane="229823258_0" departPos="1.41" departSpeed="4.95" departDelay="0.00" arrival="134.00" arrivalLane="369977731_0" arrivalPos="101.59" arrivalSpeed="6.95" duration="30.00" routeLength="207.75" waitingTime="0.00" waitingCount="0" stopTime="0.00" timeLoss="2.71" rerouteNo="0" devices="tripinfo_633_2.200" vType="DEFAULT_VEHTYPE" speedFactor="0.92" vaporized=""/>
    <tripinfo id="Trailer_2" depart="120.00" departLane="43321718#3_0" departPos="10.10" departSpeed="0.00" departDelay="0.00" arrival="134.00" arrivalLane="5976022_0" arrivalPos="2.38" arrivalSpeed="4.84" duration="14.00" routeLength="69.02" waitingTime="0.00" waitingCount="0" stopTime="0.00" timeLoss="5.18" rerouteNo="0" devices="tripinfo_Trailer_2" vType="trailer" speedFactor="1.01" vaporized=""/>
    <tripinfo id="402_3.706" depart="102.00" departLane="43321718#3_0" departPos="18.58" departSpeed="9.58" departDelay="0.73" arrival="136.00" arrivalLane="369977731_0" arrivalPos="101.59" arrivalSpeed="8.77" duration="34.00" routeLength="263.66" waitingTime="0.00" waitingCount="0" stopTime="0.00" timeLoss="6.13" rerouteNo="0" devices="tripinfo_402_3.706" vType="DEFAULT_VEHTYPE" speedFactor="1.15" vaporized=""/>
    <tripinfo id="645_5.944" depart="133.00" departLane="43321718#3_0" departPos="36.53" departSpeed="7.20" departDelay="0.65" arrival="137.00" arrivalLane="43321722_0" arrivalPos="14.17" arrivalSpeed="6.99" duration="4.00" routeLength="22.64" waitingTime="0.00" waitingCount="0" stopTime="0.00" timeLoss="0.47" rerouteNo="0" devices="tripinfo_645_5.944" vType="DEFAULT_VEHTYPE" speedFactor="0.86" vaporized=""/>
    <tripinfo id="693_1.532" depart="80.00" departLane="26545993#0_0" departPos="44.49" departSpeed="7.48" departDelay="0.00" arrival="139.00" arrivalLane="4074531#0_0" arrivalPos="129.52" arrivalSpeed="7.41" duration="59.00" routeLength="222.83" waitingTime="23.00" waitingCount="1" stopTime="0.00" timeLoss="28.68" rerouteNo="0" devices="tripinfo_693_1.532" vType="DEFAULT_VEHTYPE" speedFactor="0.90" vaporized=""/>
    <tripinfo id="158_2.375" depart="120.00" departLane="-3791745#3_1" departPos="3.46" departSpeed="9.71" departDelay="0.00" arrival="139.00" arrivalLane="-43538577#3_0" arrivalPos="66.08" arrivalSpeed="9.52" duration="19.00" routeLength="163.75" waitingTime="0.00" waitingCount="0" stopTime="0.00" timeLoss="1.40" rerouteNo="0" devices="tripinfo_158_2.375" vType="DEFAULT_VEHTYPE" speedFactor="1.17" vaporized=""/>
    <tripinfo id="694_3.172" depart="80.00" departLane="26545993#0_0" departPos="17.13" departSpeed="8.79" departDelay="0.00" arrival="140.00" arrivalLane="4074531#0_1" arrivalPos="129.52" arrivalSpeed="7.77" duration="60.00" routeLength="250.19" waitingTime="21.00" waitingCount="1" stopTime="0.00" timeLoss="31.00" rerouteNo="0" devices="tripinfo_694_3.172" vType="DEFAULT_VEHTYPE" speedFactor="1.05" vaporized=""/>
    <tripinfo id="635_4.161" depart="106.00" departLane="229823258_0" departPos="1.18" departSpeed="4.05" departDelay="2.00" arrival="141.00" arrivalLane="369977731_0" arrivalPos="101.59" arrivalSpeed="7.19" duration="35.00" routeLength="207.98" waitingTime="1.00" waitingCount="1" stopTime="0.00" timeLoss="8.15" rerouteNo="0" devices="tripinfo_635_4.161" vType="DEFAULT_VEHTYPE" speedFactor="0.93" vaporized=""/>
    <tripinfo id="125_4.118" depart="140.00" departLane="-3791031#3_0" departPos="86.51" departSpeed="8.66" departDelay="0.00" arrival="145.00" arrivalLane="-3791031#3_0" arrivalPos="125.07" arrivalSpeed="8.48" duration="5.00" routeLength="38.56" waitingTime="0.00" waitingCount="0" stopTime="0.00" timeLoss="0.21" rerouteNo="0" devices="tripinfo_125_4.118" vType="DEFAULT_VEHTYPE" speedFactor="1.04" vaporized=""/>
    <tripinfo id="431_2.223" depart="13.00" departLane="4472590#0_1" departPos="100.30" departSpeed="8.14" departDelay="0.77" arrival="148.00" arrivalLane="369977731_0" arrivalPos="101.59" arrivalSpeed="7.88" duration="135.00" routeLength="945.76" waitingTime="7.00" waitingCount="1" stopTime="0.00" timeLoss="19.33" rerouteNo="0" devices="tripinfo_431_2.223" vType="DEFAULT_VEHTYPE" speedFactor="0.98" vaporized=""/>
    <tripinfo id="72_5.400" depart="47.00" departLane="22962979_0" departPos="2.18" departSpeed="7.32" departDelay="0.17" arrival="148.00" arrivalLane="8080823#0_0" arrivalPos="112.35" arrivalSpeed="6.51" duration="101.00" routeLength="668.16" waitingTime="0.00" waitingCount="0" stopTime="0.00" timeLoss="10.30" rerouteNo="0" devices="tripinfo_72_5.400" vType="DEFAULT_VEHTYPE" speedFactor="0.88" vaporized=""/>
    <tripinfo id="124_3.153" depart="140.00" departLane="-3791031#3_0" departPos="24.78" departSpeed="9.06" departDelay="0.00" arrival="153.00" arrivalLane="-3791031#3_0" arrivalPos="125.07" arrivalSpeed="8.67" duration="13.00" routeLength="100.29" waitingTime="0.00" waitingCount="0" stopTime="0.00" timeLoss="1.06" rerouteNo="0" devices="tripinfo_124_3.153" vType="DEFAULT_VEHTYPE" speedFactor="1.09" vaporized=""/>
    <tripinfo id="Ambulance_0" depart="120.00" departLane="317003249#1_1" departPos="5.10" departSpeed="0.00" departDelay="0.00" arrival="155.00" arrivalLane="-43538577#3_0" arrivalPos="66.08" arrivalSpeed="7.78" duration="35.00" routeLength="206.96" waitingTime="0.00" waitingCount="0" stopTime="0.00" timeLoss="9.55" rerouteNo="0" devices="tripinfo_Ambulance_0" vType="Ambulance" speedFactor="1.00" vaporized=""/>
    <tripinfo id="Trailer_0" depart="120.00" departLane="229823258_0" departPos="6.80" departSpeed="0.00" departDelay="0.00" arrival="156.00" arrivalLane="369977731_0" arrivalPos="101.59" arrivalSpeed="6.69" duration="36.00" routeLength="202.36" waitingTime="2.00" waitingCount="1" stopTime="0.00" timeLoss="8.90" rerouteNo="0" devices="tripinfo_Trailer_0" vType="trailer" speedFactor="0.90" vaporized=""/>
    <tripinfo id="356_1.1490" depart="12.00" departLane="3792490#0_1" departPos="62.62" departSpeed="7.98" departDelay="0.57" arrival="158.00" arrivalLane="4628796#1_0" arrivalPos="258.84" arrivalSpeed="7.87" duration="146.00" routeLength="738.81" waitingTime="39.00" waitingCount="2" stopTime="0.00" timeLoss="55.54" rerouteNo="0" devices="tripinfo_356_1.1490" vType="DEFAULT_VEHTYPE" speedFactor="0.96" vaporized=""/>
    <tripinfo id="357_2.178" depart="32.00" departLane="3792490#0_1" departPos="0.88" departSpeed="8.32" departDelay="0.00" arrival="159.00" arrivalLane="4628796#1_1" arrivalPos="258.84" arrivalSpeed="8.18" duration="127.00" routeLength="800.55" waitingTime="15.00" waitingCount="1" stopTime="0.00" timeLoss="32.38" rerouteNo="0" devices="tripinfo_357_2.178" vType="DEFAULT_VEHTYPE" speedFactor="1.00" vaporized=""/>
    <tripinfo id="718_3.170" depart="140.00" departLane="317003249#1_0" departPos="66.74" departSpeed="8.20" departDelay="0.00" arrival="160.00" arrivalLane="-43538577#3_0" arrivalPos="66.08" arrivalSpeed="7.94" duration="20.00" routeLength="145.32" waitingTime="0.00" waitingCount="0" stopTime="0.00" timeLoss="1.93" rerouteNo="0" devices="tripinfo_718_3.170" vType="DEFAULT_VEHTYPE" speedFactor="0.98" vaporized=""/>
    <tripinfo id="1087_2.119" depart="80.00" departLane="554991019_0" departPos="40.98" departSpeed="8.20" departDelay="0.00" arrival="163.00" arrivalLane="-43538577#3_0" arrivalPos="66.08" arrivalSpeed="7.51" duration="83.00" routeLength="528.94" waitingTime="4.00" waitingCount="1" stopTime="0.00" timeLoss="16.67" rerouteNo="0" devices="tripinfo_1087_2.119" vType="DEFAULT_VEHTYPE" speedFactor="0.98" vaporized=""/>
    <tripinfo id="Ambulance_3" depart="124.00" departLane="43321718#3_0" departPos="5.10" departSpeed="0.00" departDelay="4.00" arrival="164.00" arrivalLane="369977731_0" arrivalPos="101.59" arrivalSpeed="8.31" duration="40.00" routeLength="277.14" waitingTime="0.00" waitingCount="0" stopTime="0.00" timeLoss="9.55" rerouteNo="0" devices="tripinfo_Ambulance_3" vType="Ambulance" speedFactor="1.13" vaporized=""/>
    <tripinfo id="634_3.161" depart="140.00" departLane="229823258_0" departPos="1.80" departSpeed="4.75" departDelay="0.00" arrival="166.00" arrivalLane="369977731_0" arrivalPos="101.59" arrivalSpeed="8.48" duration="26.00" routeLength="207.36" waitingTime="0.00" waitingCount="0" stopTime="0.00" timeLoss="3.41" rerouteNo="0" devices="tripinfo_634_3.161" vType="DEFAULT_VEHTYPE" speedFactor="1.14" vaporized=""/>
    <tripinfo id="668_5.613" depart="109.00" departLane="532097269#1.24_0" departPos="41.39" departSpeed="8.47" departDelay="0.56" arrival="168.00" arrivalLane="-43538577#3_0" arrivalPos="66.08" arrivalSpeed="8.03" duration="59.00" routeLength="430.61" waitingTime="0.00" waitingCount="0" stopTime="0.00" timeLoss="6.41" rerouteNo="0" devices="tripinfo_668_5.613" vType="DEFAULT_VEHTYPE" speedFactor="1.02" vaporized=""/>
    <tripinfo id="356_1.1495" depart="140.00" departLane="3792490#0_0" departPos="62.25" departSpeed="10.34" departDelay="0.00" arrival="170.00" arrivalLane="3792491#0_0" arrivalPos="137.26" arrivalSpeed="9.41" duration="30.00" routeLength="200.85" waitingTime="6.00" waitingCount="1" stopTime="0.00" timeLoss="10.49" rerouteNo="0" devices="tripinfo_356_1.1495" vType="DEFAULT_VEHTYPE" speedFactor="1.24" vaporized=""/>
    <tripinfo id="108_3.265" depart="73.00" departLane="22962979_0" departPos="5.31" departSpeed="10.25" departDelay="0.85" arrival="171.00" arrivalLane="128944693#1_0" arrivalPos="29.63" arrivalSpeed="8.36" duration="98.00" routeLength="764.87" waitingTime="3.00" waitingCount="1" stopTime="0.00" timeLoss="21.22" rerouteNo="0" devices="tripinfo_108_3.265" vType="DEFAULT_VEHTYPE" speedFactor="1.23" vaporized=""/>
    <tripinfo id="544_4.217" depart="20.00" departLane="2110697#0_0" departPos="104.72" departSpeed="9.66" departDelay="0.00" arrival="172.00" arrivalLane="369977731_0" arrivalPos="101.59" arrivalSpeed="8.98" duration="152.00" routeLength="516.91" waitingTime="86.00" waitingCount="2" stopTime="0.00" timeLoss="97.57" rerouteNo="0" devices="tripinfo_544_4.217" vType="DEFAULT_VEHTYPE" speedFactor="1.16" vaporized=""/>
    <tripinfo id="627_1.949" depart="111.00" departLane="43321718#3_0" departPos="12.55" departSpeed="8.09" departDelay="0.29" arrival="176.00" arrivalLane="8080823#0_0" arrivalPos="112.35" arrivalSpeed="7.62" duration="65.00" routeLength="421.73" waitingTime="4.00" waitingCount="1" stopTime="0.00" timeLoss="13.52" rerouteNo="0" devices="tripinfo_627_1.949" vType="DEFAULT_VEHTYPE" speedFactor="0.97" vaporized=""/>
    <tripinfo id="543_1.407" depart="50.00" departLane="2110697#0_0" departPos="277.51" departSpeed="7.93" departDelay="0.00" arrival="181.00" arrivalLane="-43321718#3_0" arrivalPos="37.17" arrivalSpeed="7.16" duration="131.00" routeLength="376.65" waitingTime="72.00" waitingCount="2" stopTime="0.00" timeLoss="84.79" rerouteNo="0" devices="tripinfo_543_1.407" vType="DEFAULT_VEHTYPE" speedFactor="1.00" vaporized=""/>
    <tripinfo id="544_4.218" depart="80.00" departLane="2110697#0_0" departPos="237.20" departSpeed="9.40" departDelay="0.00" arrival="183.00" arrivalLane="-43321718#3_0" arrivalPos="37.17" arrivalSpeed="8.38" duration="103.00" routeLength="416.96" waitingTime="38.00" waitingCount="2" stopTime="0.00" timeLoss="57.99" rerouteNo="0" devices="tripinfo_544_4.218" vType="DEFAULT_VEHTYPE" speedFactor="1.13" vaporized=""/>
    <tripinfo id="157_1.293" depart="104.00" departLane="3791745#0_1" departPos="51.13" departSpeed="8.69" departDelay="0.00" arrival="184.00" arrivalLane="-238740928#2_0" arrivalPos="59.62" arrivalSpeed="7.69" duration="80.00" routeLength="623.76" waitingTime="0.00" waitingCount="0" stopTime="0.00" timeLoss="7.48" rerouteNo="0" devices="tripinfo_157_1.293" vType="DEFAULT_VEHTYPE" speedFactor="1.04" vaporized=""/>
    <tripinfo id="543_1.408" depart="95.00" departLane="2110697#0_0" departPos="88.28" departSpeed="9.00" departDelay="0.00" arrival="188.00" arrivalLane="-43321718#3_0" arrivalPos="37.17" arrivalSpeed="8.68" duration="93.00" routeLength="565.88" waitingTime="13.00" waitingCount="1" stopTime="0.00" timeLoss="28.91" rerouteNo="0" devices="tripinfo_543_1.408" vType="DEFAULT_VEHTYPE" speedFactor="1.08" vaporized=""/>
    <tripinfo id="76_3.136" depart="118.00" departLane="-77616869#2_0" departPos="32.22" departSpeed="6.39" departDelay="0.95" arrival="189.00" arrivalLane="369977731_0" arrivalPos="101.59" arrivalSpeed="5.98" duration="71.00" routeLength="412.85" waitingTime="0.00" waitingCount="0" stopTime="0.00" timeLoss="7.45" rerouteNo="0" devices="tripinfo_76_3.136" vType="DEFAULT_VEHTYPE" speedFactor="0.77" vaporized=""/>
    <tripinfo id="1088_3.563" depart="104.00" departLane="554991019_0" departPos="20.05" departSpeed="7.31" departDelay="0.00" arrival="190.00" arrivalLane="-43538577#3_0" arrivalPos="66.08" arrivalSpeed="7.23" duration="86.00" routeLength="549.87" waitingTime="0.00" waitingCount="0" stopTime="0.00" timeLoss="9.39" rerouteNo="0" devices="tripinfo_1088_3.563" vType="DEFAULT_VEHTYPE" speedFactor="0.88" vaporized=""/>
    <tripinfo id="543_1.409" depart="140.00" departLane="2110697#0_0" departPos="286.78" departSpeed="8.56" departDelay="0.00" arrival="191.00" arrivalLane="-43321718#3_0" arrivalPos="37.17" arrivalSpeed="7.95" duration="51.00" routeLength="367.38" waitingTime="0.00" waitingCount="0" stopTime="0.00" timeLoss="7.18" rerouteNo="0" devices="tripinfo_543_1.409" vType="DEFAULT_VEHTYPE" speedFactor="1.03" vaporized=""/>
    <tripinfo id="693_1.534" depart="160.00" departLane="26545993#0_0" departPos="3.80" departSpeed="9.15" departDelay="0.00" arrival="192.00" arrivalLane="4074531#0_0" arrivalPos="129.52" arrivalSpeed="8.85" duration="32.00" routeLength="263.52" waitingTime="0.00" waitingCount="0" stopTime="0.00" timeLoss="2.65" rerouteNo="0" devices="tripinfo_693_1.534" vType="DEFAULT_VEHTYPE" speedFactor="1.10" vaporized=""/>
    <tripinfo id="Ambulance_1" depart="120.00" departLane="-77616869#2_0" departPos="5.10" departSpeed="0.00" departDelay="0.00" arrival="192.00" arrivalLane="369977731_0" arrivalPos="101.59" arrivalSpeed="6.70" duration="72.00" routeLength="439.97" waitingTime="0.00" waitingCount="0" stopTime="0.00" timeLoss="17.21" rerouteNo="0" devices="tripinfo_Ambulance_1" vType="Ambulance" speedFactor="0.96" vaporized=""/>
    <tripinfo id="28_4.232" depart="159.00" departLane="230483152#0_0" departPos="15.36" departSpeed="9.99" departDelay="0.18" arrival="195.00" arrivalLane="4475731_0" arrivalPos="161.35" arrivalSpeed="8.73" duration="36.00" routeLength="321.99" waitingTime="0.00" waitingCount="0" stopTime="0.00" timeLoss="2.89" rerouteNo="0" devices="tripinfo_28_4.232" vType="DEFAULT_VEHTYPE" speedFactor="1.20" vaporized=""/>
    <tripinfo id="151_2.343" depart="172.00" departLane="-77616869#2_0" departPos="43.61" departSpeed="8.44" departDelay="0.54" arrival="195.00" arrivalLane="14039609#0_0" arrivalPos="69.48" arrivalSpeed="7.55" duration="23.00" routeLength="129.87" waitingTime="1.00" waitingCount="1" stopTime="0.00" timeLoss="7.42" rerouteNo="0" devices="tripinfo_151_2.343" vType="DEFAULT_VEHTYPE" speedFactor="1.01" vaporized=""/>
    <tripinfo id="Trailer_3" depart="124.00" departLane="-77616869#2_0" departPos="10.10" departSpeed="0.00" departDelay="4.00" arrival="195.00" arrivalLane="369977731_0" arrivalPos="101.59" arrivalSpeed="8.06" duration="71.00" routeLength="434.97" waitingTime="0.00" waitingCount="0" stopTime="0.00" timeLoss="21.45" rerouteNo="0" devices="tripinfo_Trailer_3" vType="trailer" speedFactor="1.05" vaporized=""/>
    <tripinfo id="158_2.376" depart="160.00" departLane="-3791745#3_1" departPos="8.44" departSpeed="9.59" departDelay="0.00" arrival="201.00" arrivalLane="-43538577#3_0" arrivalPos="66.08" arrivalSpeed="9.32" duration="41.00" routeLength="158.77" waitingTime="19.00" waitingCount="1" stopTime="0.00" timeLoss="23.86" rerouteNo="0" devices="tripinfo_158_2.376" vType="DEFAULT_VEHTYPE" speedFactor="1.15" vaporized=""/>
    <tripinfo id="986_3.228" depart="80.00" departLane="4074526#0_0" departPos="113.58" departSpeed="8.41" departDelay="0.00" arrival="203.00" arrivalLane="8080823#0_0" arrivalPos="112.35" arrivalSpeed="7.92" duration="123.00" routeLength="825.38" waitingTime="10.00" waitingCount="1" stopTime="0.00" timeLoss="24.72" rerouteNo="0" devices="tripinfo_986_3.228" vType="DEFAULT_VEHTYPE" speedFactor="1.01" vaporized=""/>
    <tripinfo id="70_1.497" depart="86.00" departLane="22962979_0" departPos="51.15" departSpeed="9.76" departDelay="0.99" arrival="205.00" arrivalLane="8080823#0_0" arrivalPos="112.35" arrivalSpeed="9.14" duration="119.00" routeLength="619.19" waitingTime="40.00" waitingCount="1" stopTime="0.00" timeLoss="55.86" rerouteNo="0" devices="tripinfo_70_1.497" vType="DEFAULT_VEHTYPE" speedFactor="1.17" vaporized=""/>
    <tripinfo id="633_2.201" depart="176.00" departLane="229823258_0" departPos="4.66" departSpeed="2.14" departDelay="0.00" arrival="206.00" arrivalLane="369977731_0" arrivalPos="101.59" arrivalSpeed="6.63" duration="30.00" routeLength="204.50" waitingTime="0.00" waitingCount="0" stopTime="0.00" timeLoss="3.18" rerouteNo="0" devices="tripinfo_633_2.201" vType="DEFAULT_VEHTYPE" speedFactor="0.94" vaporized=""/>