<?xml version="1.0" encoding="UTF-8"?>

<!-- generated on 2023-03-14 18:27:30 by Eclipse SUMO GUI Version 1.14.1
<configuration xmlns:xsi="http://www.w3.org/2001/XMLSchema-instance" xsi:noNamespaceSchemaLocation="http://sumo.dlr.de/xsd/sumoConfiguration.xsd">

    <input>
        <net-file value="/Users/gjy/OITSC_Urban/nets/1km/selected1km.net.xml"/>
        <route-files value="/Users/gjy/OITSC_Urban/nets/1km/selected1km_1kSec.rou.xml"/>
    </input>

    <output>
        <tripinfo-output value="ImportantObservation-QL-tripinfo-proposed-run1.xml"/>
    </output>

    <processing>
        <time-to-teleport value="-1"/>
        <waiting-time-memory value="10000"/>
    </processing>

    <traci_server>
        <remote-port value="58242"/>
    </traci_server>

    <random_number>
        <random value="true"/>
    </random_number>

    <gui_only>
        <quit-on-end value="true"/>
        <start value="true"/>
    </gui_only>

</configuration>
-->

<tripinfos xmlns:xsi="http://www.w3.org/2001/XMLSchema-instance" xsi:noNamespaceSchemaLocation="http://sumo.dlr.de/xsd/tripinfo_file.xsd">
    <tripinfo id="158_2.372" depart="0.00" departLane="-3791745#3_1" departPos="55.19" departSpeed="8.97" departDelay="0.00" arrival="14.00" arrivalLane="-43538577#3_0" arrivalPos="66.08" arrivalSpeed="8.22" duration="14.00" routeLength="112.02" waitingTime="0.00" waitingCount="0" stopTime="0.00" timeLoss="0.95" rerouteNo="0" devices="tripinfo_158_2.372" vType="DEFAULT_VEHTYPE" speedFactor="1.08" vaporized=""/>
    <tripinfo id="158_2.373" depart="40.00" departLane="-3791745#3_1" departPos="56.06" departSpeed="8.21" departDelay="0.00" arrival="55.00" arrivalLane="-43538577#3_0" arrivalPos="66.08" arrivalSpeed="7.31" duration="15.00" routeLength="111.15" waitingTime="0.00" waitingCount="0" stopTime="0.00" timeLoss="1.22" rerouteNo="0" devices="tripinfo_158_2.373" vType="DEFAULT_VEHTYPE" speedFactor="0.99" vaporized=""/>
    <tripinfo id="643_1.463" depart="24.00" departLane="22962979_0" departPos="43.55" departSpeed="8.53" departDelay="0.22" arrival="58.00" arrivalLane="532427444#4_0" arrivalPos="73.98" arrivalSpeed="8.10" duration="34.00" routeLength="132.36" waitingTime="13.00" waitingCount="1" stopTime="0.00" timeLoss="18.12" rerouteNo="0" devices="tripinfo_643_1.463" vType="DEFAULT_VEHTYPE" speedFactor="1.02" vaporized=""/>
    <tripinfo id="635_4.160" depart="32.00" departLane="229823258_0" departPos="6.42" departSpeed="0.38" departDelay="0.00" arrival="60.00" arrivalLane="369977731_0" arrivalPos="101.59" arrivalSpeed="7.73" duration="28.00" routeLength="202.74" waitingTime="0.00" waitingCount="0" stopTime="0.00" timeLoss="3.12" rerouteNo="0" devices="tripinfo_635_4.160" vType="DEFAULT_VEHTYPE" speedFactor="1.01" vaporized=""/>
    <tripinfo id="112_3.327" depart="53.00" departLane="43321718#3_0" departPos="23.09" departSpeed="8.58" departDelay="0.79" arrival="61.00" arrivalLane="5976022_0" arrivalPos="2.38" arrivalSpeed="5.47" duration="8.00" routeLength="56.03" waitingTime="0.00" waitingCount="0" stopTime="0.00" timeLoss="1.27" rerouteNo="0" devices="tripinfo_112_3.327" vType="DEFAULT_VEHTYPE" speedFactor="1.03" vaporized=""/>
    <tripinfo id="693_1.530" depart="0.00" departLane="26545993#0_0" departPos="6.52" departSpeed="8.24" departDelay="0.00" arrival="64.00" arrivalLane="4074531#0_0" arrivalPos="129.52" arrivalSpeed="7.08" duration="64.00" routeLength="260.80" waitingTime="27.00" waitingCount="1" stopTime="0.00" timeLoss="32.19" rerouteNo="0" devices="tripinfo_693_1.530" vType="DEFAULT_VEHTYPE" speedFactor="0.99" vaporized=""/>
    <tripinfo id="115_2.389" depart="40.00" departLane="43321718#3_0" departPos="28.60" departSpeed="9.23" departDelay="0.59" arrival="69.00" arrivalLane="42636056_0" arrivalPos="44.42" arrivalSpeed="8.39" duration="29.00" routeLength="183.34" waitingTime="1.00" waitingCount="1" stopTime="0.00" timeLoss="9.38" rerouteNo="0" devices="tripinfo_115_2.389" vType="DEFAULT_VEHTYPE" speedFactor="1.11" vaporized=""/>
    <tripinfo id="356_1.1491" depart="38.00" departLane="3792490#0_0" departPos="77.25" departSpeed="6.60" departDelay="0.86" arrival="70.00" arrivalLane="3792491#0_0" arrivalPos="137.26" arrivalSpeed="5.60" duration="32.00" routeLength="185.85" waitingTime="0.00" waitingCount="0" stopTime="0.00" timeLoss="3.64" rerouteNo="0" devices="tripinfo_356_1.1491" vType="DEFAULT_VEHTYPE" speedFactor="0.79" vaporized=""/>
    <tripinfo id="718_3.169" depart="50.00" departLane="317003249#1_0" departPos="18.64" departSpeed="8.85" departDelay="0.00" arrival="75.00" arrivalLane="-43538577#3_0" arrivalPos="66.08" arrivalSpeed="8.17" duration="25.00" routeLength="193.42" waitingTime="0.00" waitingCount="0" stopTime="0.00" timeLoss="2.16" rerouteNo="0" devices="tripinfo_718_3.169" vType="DEFAULT_VEHTYPE" speedFactor="1.06" vaporized=""/>
    <tripinfo id="634_3.160" depart="50.00" departLane="229823258_0" departPos="3.56" departSpeed="3.24" departDelay="0.00" arrival="75.00" arrivalLane="369977731_0" arrivalPos="101.59" arrivalSpeed="8.73" duration="25.00" routeLength="205.60" waitingTime="0.00" waitingCount="0" stopTime="0.00" timeLoss="1.99" rerouteNo="0" devices="tripinfo_634_3.160" vType="DEFAULT_VEHTYPE" speedFactor="1.10" vaporized=""/>
    <tripinfo id="113_4.864" depart="47.00" departLane="22962979_0" departPos="16.37" departSpeed="8.05" departDelay="0.93" arrival="83.00" arrivalLane="14152308_0" arrivalPos="25.16" arrivalSpeed="7.75" duration="36.00" routeLength="249.92" waitingTime="0.00" waitingCount="0" stopTime="0.00" timeLoss="4.07" rerouteNo="0" devices="tripinfo_113_4.864" vType="DEFAULT_VEHTYPE" speedFactor="0.97" vaporized=""/>
    <tripinfo id="543_1.406" depart="5.00" departLane="2110697#0_0" departPos="268.36" departSpeed="9.01" departDelay="0.00" arrival="89.00" arrivalLane="8080823#0_0" arrivalPos="112.35" arrivalSpeed="8.01" duration="84.00" routeLength="667.31" waitingTime="0.00" waitingCount="0" stopTime="0.00" timeLoss="9.15" rerouteNo="0" devices="tripinfo_543_1.406" vType="DEFAULT_VEHTYPE" speedFactor="1.08" vaporized=""/>
    <tripinfo id="462_7.356" depart="53.00" departLane="43321718#3_0" departPos="13.19" departSpeed="5.49" departDelay="0.53" arrival="92.00" arrivalLane="38192815_0" arrivalPos="87.29" arrivalSpeed="7.89" duration="39.00" routeLength="295.10" waitingTime="0.00" waitingCount="0" stopTime="0.00" timeLoss="6.00" rerouteNo="0" devices="tripinfo_462_7.356" vType="DEFAULT_VEHTYPE" speedFactor="1.07" vaporized=""/>
    <tripinfo id="356_1.1492" depart="63.00" departLane="3792490#0_0" departPos="46.72" departSpeed="7.99" departDelay="0.14" arrival="92.00" arrivalLane="3792491#0_0" arrivalPos="137.26" arrivalSpeed="7.96" duration="29.00" routeLength="216.38" waitingTime="0.00" waitingCount="0" stopTime="0.00" timeLoss="1.82" rerouteNo="0" devices="tripinfo_356_1.1492" vType="DEFAULT_VEHTYPE" speedFactor="0.96" vaporized=""/>
    <tripinfo id="503_5.745" depart="36.00" departLane="43321718#3_0" departPos="14.41" departSpeed="9.17" departDelay="0.91" arrival="93.00" arrivalLane="8080823#0_0" arrivalPos="112.35" arrivalSpeed="9.07" duration="57.00" routeLength="419.87" waitingTime="3.00" waitingCount="1" stopTime="0.00" timeLoss="11.79" rerouteNo="0" devices="tripinfo_503_5.745" vType="DEFAULT_VEHTYPE" speedFactor="1.10" vaporized=""/>
    <tripinfo id="694_3.172" depart="80.00" departLane="26545993#0_0" departPos="122.95" departSpeed="7.42" departDelay="0.00" arrival="99.00" arrivalLane="4074531#0_0" arrivalPos="129.52" arrivalSpeed="7.69" duration="19.00" routeLength="144.37" waitingTime="0.00" waitingCount="0" stopTime="0.00" timeLoss="1.80" rerouteNo="0" devices="tripinfo_694_3.172" vType="DEFAULT_VEHTYPE" speedFactor="1.06" vaporized=""/>
    <tripinfo id="645_5.942" depart="72.00" departLane="22962979_0" departPos="2.23" departSpeed="9.19" departDelay="0.22" arrival="100.00" arrivalLane="532427444#4_0" arrivalPos="73.98" arrivalSpeed="8.58" duration="28.00" routeLength="173.68" waitingTime="1.00" waitingCount="1" stopTime="0.00" timeLoss="8.46" rerouteNo="0" devices="tripinfo_645_5.942" vType="DEFAULT_VEHTYPE" speedFactor="1.10" vaporized=""/>
    <tripinfo id="28_4.231" depart="69.00" departLane="230483152#0_0" departPos="41.46" departSpeed="9.24" departDelay="0.18" arrival="105.00" arrivalLane="4475731_0" arrivalPos="161.35" arrivalSpeed="8.05" duration="36.00" routeLength="295.89" waitingTime="0.00" waitingCount="0" stopTime="0.00" timeLoss="2.76" rerouteNo="0" devices="tripinfo_28_4.231" vType="DEFAULT_VEHTYPE" speedFactor="1.11" vaporized=""/>
    <tripinfo id="158_2.374" depart="80.00" departLane="-3791745#3_1" departPos="52.19" departSpeed="7.06" departDelay="0.00" arrival="107.00" arrivalLane="-43538577#3_0" arrivalPos="66.08" arrivalSpeed="6.90" duration="27.00" routeLength="115.02" waitingTime="5.00" waitingCount="1" stopTime="0.00" timeLoss="10.69" rerouteNo="0" devices="tripinfo_158_2.374" vType="DEFAULT_VEHTYPE" speedFactor="0.89" vaporized=""/>
    <tripinfo id="240_2.161" depart="71.00" departLane="3791031#0_0" departPos="35.93" departSpeed="8.07" departDelay="0.22" arrival="110.00" arrivalLane="4074531#0_1" arrivalPos="129.52" arrivalSpeed="7.74" duration="39.00" routeLength="228.89" waitingTime="4.00" waitingCount="1" stopTime="0.00" timeLoss="10.29" rerouteNo="0" devices="tripinfo_240_2.161" vType="DEFAULT_VEHTYPE" speedFactor="0.97" vaporized=""/>
    <tripinfo id="361_5.170" depart="72.00" departLane="3791031#0_1" departPos="80.70" departSpeed="8.41" departDelay="0.56" arrival="110.00" arrivalLane="4074531#0_0" arrivalPos="129.52" arrivalSpeed="7.79" duration="38.00" routeLength="190.05" waitingTime="11.00" waitingCount="1" stopTime="0.00" timeLoss="14.92" rerouteNo="0" devices="tripinfo_361_5.170" vType="DEFAULT_VEHTYPE" speedFactor="1.01" vaporized=""/>
    <tripinfo id="632_1.168" depart="80.00" departLane="229823258_0" departPos="6.16" departSpeed="0.64" departDelay="0.00" arrival="110.00" arrivalLane="369977731_0" arrivalPos="101.59" arrivalSpeed="7.82" duration="30.00" routeLength="203.00" waitingTime="0.00" waitingCount="0" stopTime="0.00" timeLoss="3.74" rerouteNo="0" devices="tripinfo_632_1.168" vType="DEFAULT_VEHTYPE" speedFactor="0.96" vaporized=""/>
    <tripinfo id="501_2.401" depart="66.00" departLane="43321718#3_0" departPos="24.96" departSpeed="9.57" departDelay="0.12" arrival="113.00" arrivalLane="8080823#0_0" arrivalPos="112.35" arrivalSpeed="8.95" duration="47.00" routeLength="409.32" waitingTime="0.00" waitingCount="0" stopTime="0.00" timeLoss="4.72" rerouteNo="0" devices="tripinfo_501_2.401" vType="DEFAULT_VEHTYPE" speedFactor="1.15" vaporized=""/>
    <tripinfo id="79_6.174" depart="88.00" departLane="-77616869#2_0" departPos="84.71" departSpeed="7.91" departDelay="0.95" arrival="119.00" arrivalLane="-43321718#3_0" arrivalPos="37.17" arrivalSpeed="7.45" duration="31.00" routeLength="219.64" waitingTime="0.00" waitingCount="0" stopTime="0.00" timeLoss="4.10" rerouteNo="0" devices="tripinfo_79_6.174" vType="DEFAULT_VEHTYPE" speedFactor="0.95" vaporized=""/>
    <tripinfo id="72_5.400" depart="47.00" departLane="22962979_0" departPos="55.73" departSpeed="9.02" departDelay="0.17" arrival="121.00" arrivalLane="8080823#0_0" arrivalPos="112.35" arrivalSpeed="8.68" duration="74.00" routeLength="614.61" waitingTime="0.00" waitingCount="0" stopTime="0.00" timeLoss="6.50" rerouteNo="0" devices="tripinfo_72_5.400" vType="DEFAULT_VEHTYPE" speedFactor="1.08" vaporized=""/>
    <tripinfo id="171_3.429" depart="85.00" departLane="43321718#3_0" departPos="13.09" departSpeed="8.91" departDelay="0.44" arrival="121.00" arrivalLane="77616869#0_0" arrivalPos="90.89" arrivalSpeed="8.89" duration="36.00" routeLength="296.41" waitingTime="0.00" waitingCount="0" stopTime="0.00" timeLoss="3.11" rerouteNo="0" devices="tripinfo_171_3.429" vType="DEFAULT_VEHTYPE" speedFactor="1.07" vaporized=""/>
    <tripinfo id="633_2.200" depart="104.00" departLane="229823258_0" departPos="6.33" departSpeed="0.47" departDelay="0.00" arrival="129.00" arrivalLane="369977731_0" arrivalPos="101.59" arrivalSpeed="9.11" duration="25.00" routeLength="202.83" waitingTime="0.00" waitingCount="0" stopTime="0.00" timeLoss="3.38" rerouteNo="0" devices="tripinfo_633_2.200" vType="DEFAULT_VEHTYPE" speedFactor="1.15" vaporized=""/>
    <tripinfo id="1273_1.313" depart="10.00" departLane="4472590#0_1" departPos="212.16" departSpeed="8.30" departDelay="0.78" arrival="130.00" arrivalLane="-43321718#3_0" arrivalPos="37.17" arrivalSpeed="8.05" duration="120.00" routeLength="697.97" waitingTime="24.00" waitingCount="1" stopTime="0.00" timeLoss="36.96" rerouteNo="0" devices="tripinfo_1273_1.313" vType="DEFAULT_VEHTYPE" speedFactor="1.00" vaporized=""/>
    <tripinfo id="358_1.145" depart="102.00" departLane="3791031#0_0" departPos="59.90" departSpeed="7.89" departDelay="0.56" arrival="132.00" arrivalLane="4074531#0_0" arrivalPos="129.52" arrivalSpeed="7.77" duration="30.00" routeLength="210.85" waitingTime="0.00" waitingCount="0" stopTime="0.00" timeLoss="2.61" rerouteNo="0" devices="tripinfo_358_1.145" vType="DEFAULT_VEHTYPE" speedFactor="0.95" vaporized=""/>
    <tripinfo id="693_1.532" depart="80.00" departLane="26545993#0_0" departPos="33.76" departSpeed="9.12" departDelay="0.00" arrival="136.00" arrivalLane="4074531#0_0" arrivalPos="129.52" arrivalSpeed="8.68" duration="56.00" routeLength="233.56" waitingTime="25.00" waitingCount="1" stopTime="0.00" timeLoss="29.36" rerouteNo="0" devices="tripinfo_693_1.532" vType="DEFAULT_VEHTYPE" speedFactor="1.09" vaporized=""/>
    <tripinfo id="158_2.375" depart="120.00" departLane="-3791745#3_1" departPos="52.55" departSpeed="7.83" departDelay="0.00" arrival="136.00" arrivalLane="-43538577#3_0" arrivalPos="66.08" arrivalSpeed="6.73" duration="16.00" routeLength="114.66" waitingTime="0.00" waitingCount="0" stopTime="0.00" timeLoss="1.35" rerouteNo="0" devices="tripinfo_158_2.375" vType="DEFAULT_VEHTYPE" speedFactor="0.94" vaporized=""/>
    <tripinfo id="FuelTruck_2" depart="120.00" departLane="43538577#3_0" departPos="10.10" departSpeed="0.00" departDelay="0.00" arrival="136.00" arrivalLane="668344588_0" arrivalPos="10.30" arrivalSpeed="5.96" duration="16.00" routeLength="77.58" waitingTime="0.00" waitingCount="0" stopTime="0.00" timeLoss="6.23" rerouteNo="0" devices="tripinfo_FuelTruck_2" vType="fueltruck" speedFactor="1.01" vaporized=""/>
    <tripinfo id="1274_2.129" depart="10.00" departLane="4472590#0_1" departPos="16.83" departSpeed="9.02" departDelay="0.78" arrival="137.00" arrivalLane="-43321718#3_0" arrivalPos="37.17" arrivalSpeed="8.20" duration="127.00" routeLength="893.30" waitingTime="8.00" waitingCount="1" stopTime="0.00" timeLoss="28.59" rerouteNo="0" devices="tripinfo_1274_2.129" vType="DEFAULT_VEHTYPE" speedFactor="1.08" vaporized=""/>
    <tripinfo id="635_4.161" depart="105.00" departLane="229823258_0" departPos="0.33" departSpeed="0.71" departDelay="1.00" arrival="137.00" arrivalLane="369977731_0" arrivalPos="101.59" arrivalSpeed="7.45" duration="32.00" routeLength="208.83" waitingTime="0.00" waitingCount="0" stopTime="0.00" timeLoss="4.85" rerouteNo="0" devices="tripinfo_635_4.161" vType="DEFAULT_VEHTYPE" speedFactor="0.95" vaporized=""/>
    <tripinfo id="645_5.944" depart="133.00" departLane="43321718#3_0" departPos="35.84" departSpeed="7.84" departDelay="0.65" arrival="137.00" arrivalLane="43321722_0" arrivalPos="14.17" arrivalSpeed="7.15" duration="4.00" routeLength="23.33" waitingTime="0.00" waitingCount="0" stopTime="0.00" timeLoss="0.36" rerouteNo="0" devices="tripinfo_645_5.944" vType="DEFAULT_VEHTYPE" speedFactor="0.94" vaporized=""/>
    <tripinfo id="Ambulance_1" depart="120.00" departLane="-3791031#3_0" departPos="5.10" departSpeed="0.00" departDelay="0.00" arrival="137.00" arrivalLane="-3791031#3_0" arrivalPos="125.07" arrivalSpeed="8.82" duration="17.00" routeLength="119.97" waitingTime="0.00" waitingCount="0" stopTime="0.00" timeLoss="4.10" rerouteNo="0" devices="tripinfo_Ambulance_1" vType="Ambulance" speedFactor="1.15" vaporized=""/>
    <tripinfo id="402_3.706" depart="102.00" departLane="43321718#3_0" departPos="7.24" departSpeed="8.17" departDelay="0.73" arrival="140.00" arrivalLane="369977731_0" arrivalPos="101.59" arrivalSpeed="7.37" duration="38.00" routeLength="275.00" waitingTime="0.00" waitingCount="0" stopTime="0.00" timeLoss="3.57" rerouteNo="0" devices="tripinfo_402_3.706" vType="DEFAULT_VEHTYPE" speedFactor="0.98" vaporized=""/>
    <tripinfo id="125_4.118" depart="140.00" departLane="-3791031#3_0" departPos="118.74" departSpeed="8.29" departDelay="0.00" arrival="141.00" arrivalLane="-3791031#3_0" arrivalPos="125.07" arrivalSpeed="7.45" duration="1.00" routeLength="6.33" waitingTime="0.00" waitingCount="0" stopTime="0.00" timeLoss="0.10" rerouteNo="0" devices="tripinfo_125_4.118" vType="DEFAULT_VEHTYPE" speedFactor="1.00" vaporized=""/>
    <tripinfo id="25_1.90" depart="99.00" departLane="230483152#0_0" departPos="24.76" departSpeed="7.95" departDelay="0.18" arrival="144.00" arrivalLane="4475731_0" arrivalPos="161.35" arrivalSpeed="7.31" duration="45.00" routeLength="312.59" waitingTime="0.00" waitingCount="0" stopTime="0.00" timeLoss="4.42" rerouteNo="0" devices="tripinfo_25_1.90" vType="DEFAULT_VEHTYPE" speedFactor="0.95" vaporized=""/>
    <tripinfo id="FuelTruck_3" depart="120.00" departLane="229823258_0" departPos="6.80" departSpeed="0.00" departDelay="0.00" arrival="150.00" arrivalLane="369977731_0" arrivalPos="101.59" arrivalSpeed="7.28" duration="30.00" routeLength="202.36" waitingTime="0.00" waitingCount="0" stopTime="0.00" timeLoss="7.61" rerouteNo="0" devices="tripinfo_FuelTruck_3" vType="fueltruck" speedFactor="1.09" vaporized=""/>
    <tripinfo id="124_3.153" depart="140.00" departLane="-3791031#3_0" departPos="41.74" departSpeed="8.11" departDelay="0.00" arrival="152.00" arrivalLane="-3791031#3_0" arrivalPos="125.07" arrivalSpeed="7.86" duration="12.00" routeLength="83.33" waitingTime="0.00" waitingCount="0" stopTime="0.00" timeLoss="1.10" rerouteNo="0" devices="tripinfo_124_3.153" vType="DEFAULT_VEHTYPE" speedFactor="0.97" vaporized=""/>
    <tripinfo id="357_2.178" depart="32.00" departLane="3792490#0_1" departPos="90.47" departSpeed="8.32" departDelay="0.00" arrival="153.00" arrivalLane="4628796#1_1" arrivalPos="258.84" arrivalSpeed="9.57" duration="121.00" routeLength="710.96" waitingTime="25.00" waitingCount="2" stopTime="0.00" timeLoss="51.62" rerouteNo="0" devices="tripinfo_357_2.178" vType="DEFAULT_VEHTYPE" speedFactor="1.20" vaporized=""/>
    <tripinfo id="356_1.1490" depart="12.00" departLane="3792490#0_1" departPos="74.95" departSpeed="8.47" departDelay="0.57" arrival="155.00" arrivalLane="4628796#1_0" arrivalPos="258.84" arrivalSpeed="7.59" duration="143.00" routeLength="726.48" waitingTime="45.00" waitingCount="2" stopTime="0.00" timeLoss="59.34" rerouteNo="0" devices="tripinfo_356_1.1490" vType="DEFAULT_VEHTYPE" speedFactor="1.02" vaporized=""/>
    <tripinfo id="431_2.223" depart="13.00" departLane="4472590#0_1" departPos="205.99" departSpeed="7.64" departDelay="0.77" arrival="155.00" arrivalLane="369977731_0" arrivalPos="101.59" arrivalSpeed="7.18" duration="142.00" routeLength="840.07" waitingTime="16.00" waitingCount="1" stopTime="0.00" timeLoss="32.24" rerouteNo="0" devices="tripinfo_431_2.223" vType="DEFAULT_VEHTYPE" speedFactor="0.92" vaporized=""/>
    <tripinfo id="108_3.265" depart="73.00" departLane="22962979_0" departPos="53.03" departSpeed="9.56" departDelay="0.85" arrival="162.00" arrivalLane="128944693#1_0" arrivalPos="29.63" arrivalSpeed="8.47" duration="89.00" routeLength="717.15" waitingTime="0.00" waitingCount="0" stopTime="0.00" timeLoss="11.48" rerouteNo="0" devices="tripinfo_108_3.265" vType="DEFAULT_VEHTYPE" speedFactor="1.15" vaporized=""/>
    <tripinfo id="76_3.136" depart="118.00" departLane="-77616869#2_0" departPos="88.51" departSpeed="7.86" departDelay="0.95" arrival="168.00" arrivalLane="369977731_0" arrivalPos="101.59" arrivalSpeed="7.53" duration="50.00" routeLength="356.56" waitingTime="0.00" waitingCount="0" stopTime="0.00" timeLoss="5.18" rerouteNo="0" devices="tripinfo_76_3.136" vType="DEFAULT_VEHTYPE" speedFactor="0.94" vaporized=""/>
    <tripinfo id="Trailer_3" depart="125.00" departLane="3792490#0_0" departPos="10.10" departSpeed="0.00" departDelay="5.00" arrival="169.00" arrivalLane="3792491#0_0" arrivalPos="137.26" arrivalSpeed="5.02" duration="44.00" routeLength="253.00" waitingTime="0.00" waitingCount="0" stopTime="0.00" timeLoss="9.87" rerouteNo="0" devices="tripinfo_Trailer_3" vType="trailer" speedFactor="0.89" vaporized=""/>
    <tripinfo id="634_3.161" depart="140.00" departLane="229823258_0" departPos="2.86" departSpeed="3.94" departDelay="0.00" arrival="172.00" arrivalLane="369977731_0" arrivalPos="101.59" arrivalSpeed="6.27" duration="32.00" routeLength="206.30" waitingTime="0.00" waitingCount="0" stopTime="0.00" timeLoss="3.53" rerouteNo="0" devices="tripinfo_634_3.161" vType="DEFAULT_VEHTYPE" speedFactor="0.88" vaporized=""/>
    <tripinfo id="627_1.949" depart="111.00" departLane="43321718#3_0" departPos="34.65" departSpeed="7.95" departDelay="0.29" arrival="174.00" arrivalLane="8080823#0_0" arrivalPos="112.35" arrivalSpeed="7.37" duration="63.00" routeLength="399.63" waitingTime="2.00" waitingCount="1" stopTime="0.00" timeLoss="13.91" rerouteNo="0" devices="tripinfo_627_1.949" vType="DEFAULT_VEHTYPE" speedFactor="0.95" vaporized=""/>
    <tripinfo id="356_1.1495" depart="140.00" departLane="3792490#0_0" departPos="1.07" departSpeed="8.32" departDelay="0.00" arrival="175.00" arrivalLane="3792491#0_1" arrivalPos="137.26" arrivalSpeed="7.95" duration="35.00" routeLength="262.03" waitingTime="0.00" waitingCount="0" stopTime="0.00" timeLoss="3.35" rerouteNo="0" devices="tripinfo_356_1.1495" vType="DEFAULT_VEHTYPE" speedFactor="1.00" vaporized=""/>
    <tripinfo id="Trailer_4" depart="128.00" departLane="3792490#0_1" departPos="10.10" departSpeed="0.00" departDelay="8.00" arrival="175.00" arrivalLane="3792491#0_0" arrivalPos="137.26" arrivalSpeed="7.75" duration="47.00" routeLength="253.00" waitingTime="1.00" waitingCount="1" stopTime="0.00" timeLoss="15.06" rerouteNo="0" devices="tripinfo_Trailer_4" vType="trailer" speedFactor="0.96" vaporized=""/>
    <tripinfo id="158_2.376" depart="160.00" departLane="-3791745#3_1" departPos="23.06" departSpeed="9.58" departDelay="0.00" arrival="177.00" arrivalLane="-43538577#3_0" arrivalPos="66.08" arrivalSpeed="8.96" duration="17.00" routeLength="144.15" waitingTime="0.00" waitingCount="0" stopTime="0.00" timeLoss="1.05" rerouteNo="0" devices="tripinfo_158_2.376" vType="DEFAULT_VEHTYPE" speedFactor="1.15" vaporized=""/>
    <tripinfo id="544_4.217" depart="20.00" departLane="2110697#0_0" departPos="29.31" departSpeed="7.97" departDelay="0.00" arrival="181.00" arrivalLane="369977731_0" arrivalPos="101.59" arrivalSpeed="7.63" duration="161.00" routeLength="592.32" waitingTime="68.00" waitingCount="3" stopTime="0.00" timeLoss="85.65" rerouteNo="0" devices="tripinfo_544_4.217" vType="DEFAULT_VEHTYPE" speedFactor="0.96" vaporized=""/>
    <tripinfo id="115_2.391" depart="152.00" departLane="43321718#3_0" departPos="34.07" departSpeed="9.83" departDelay="0.59" arrival="183.00" arrivalLane="77616869#0_0" arrivalPos="90.89" arrivalSpeed="9.37" duration="31.00" routeLength="275.43" waitingTime="0.00" waitingCount="0" stopTime="0.00" timeLoss="3.36" rerouteNo="0" devices="tripinfo_115_2.391" vType="DEFAULT_VEHTYPE" speedFactor="1.18" vaporized=""/>
    <tripinfo id="28_4.232" depart="159.00" departLane="230483152#0_0" departPos="148.74" departSpeed="8.64" departDelay="0.18" arrival="183.00" arrivalLane="4475731_0" arrivalPos="161.35" arrivalSpeed="7.51" duration="24.00" routeLength="188.61" waitingTime="0.00" waitingCount="0" stopTime="0.00" timeLoss="1.93" rerouteNo="0" devices="tripinfo_28_4.232" vType="DEFAULT_VEHTYPE" speedFactor="1.04" vaporized=""/>
    <tripinfo id="151_2.343" depart="172.00" departLane="-77616869#2_0" departPos="82.01" departSpeed="6.20" departDelay="0.54" arrival="184.00" arrivalLane="14039609#0_0" arrivalPos="69.48" arrivalSpeed="7.70" duration="12.00" routeLength="91.47" waitingTime="0.00" waitingCount="0" stopTime="0.00" timeLoss="1.28" rerouteNo="0" devices="tripinfo_151_2.343" vType="DEFAULT_VEHTYPE" speedFactor="1.04" vaporized=""/>
    <tripinfo id="543_1.407" depart="50.00" departLane="2110697#0_0" departPos="23.75" departSpeed="8.73" departDelay="0.00" arrival="186.00" arrivalLane="-43321718#3_0" arrivalPos="37.17" arrivalSpeed="8.69" duration="136.00" routeLength="630.41" waitingTime="43.00" waitingCount="2" stopTime="0.00" timeLoss="62.99" rerouteNo="0" devices="tripinfo_543_1.407" vType="DEFAULT_VEHTYPE" speedFactor="1.05" vaporized=""/>
    <tripinfo id="Trailer_0" depart="120.00" departLane="-15464769#0_0" departPos="10.10" departSpeed="0.00" departDelay="0.00" arrival="186.00" arrivalLane="16309917#0_0" arrivalPos="85.84" arrivalSpeed="7.36" duration="66.00" routeLength="269.07" waitingTime="18.00" waitingCount="4" stopTime="0.00" timeLoss="33.45" rerouteNo="0" devices="tripinfo_Trailer_0" vType="trailer" speedFactor="1.00" vaporized=""/>
    <tripinfo id="544_4.218" depart="80.00" departLane="2110697#0_0" departPos="98.39" departSpeed="9.12" departDelay="0.00" arrival="189.00" arrivalLane="-43321718#3_0" arrivalPos="37.17" arrivalSpeed="8.80" duration="109.00" routeLength="555.77" waitingTime="31.00" waitingCount="1" stopTime="0.00" timeLoss="47.43" rerouteNo="0" devices="tripinfo_544_4.218" vType="DEFAULT_VEHTYPE" speedFactor="1.09" vaporized=""/>
    <tripinfo id="157_1.293" depart="104.00" departLane="3791745#0_1" departPos="13.40" departSpeed="8.60" departDelay="0.00" arrival="189.00" arrivalLane="-238740928#2_0" arrivalPos="59.62" arrivalSpeed="8.57" duration="85.00" routeLength="661.49" waitingTime="0.00" waitingCount="0" stopTime="0.00" timeLoss="7.33" rerouteNo="0" devices="tripinfo_157_1.293" vType="DEFAULT_VEHTYPE" speedFactor="1.03" vaporized=""/>
    <tripinfo id="986_3.228" depart="80.00" departLane="4074526#0_0" departPos="214.84" departSpeed="8.45" departDelay="0.00" arrival="192.00" arrivalLane="8080823#0_0" arrivalPos="112.35" arrivalSpeed="7.48" duration="112.00" routeLength="724.12" waitingTime="13.00" waitingCount="1" stopTime="0.00" timeLoss="26.37" rerouteNo="0" devices="tripinfo_986_3.228" vType="DEFAULT_VEHTYPE" speedFactor="1.01" vaporized=""/>
    <tripinfo id="693_1.534" depart="160.00" departLane="26545993#0_0" departPos="55.28" departSpeed="7.51" departDelay="0.00" arrival="192.00" arrivalLane="4074531#0_0" arrivalPos="129.52" arrivalSpeed="7.03" duration="32.00" routeLength="212.04" waitingTime="0.00" waitingCount="0" stopTime="0.00" timeLoss="3.11" rerouteNo="0" devices="tripinfo_693_1.534" vType="DEFAULT_VEHTYPE" speedFactor="0.90" vaporized=""/>
    <tripinfo id="1072_3.619" depart="31.00" departLane="4472590#0_2" departPos="129.30" departSpeed="9.11" departDelay="0.18" arrival="195.00" arrivalLane="14151839#3_0" arrivalPos="72.82" arrivalSpeed="8.94" duration="164.00" routeLength="957.30" waitingTime="47.00" waitingCount="1" stopTime="0.00" timeLoss="59.23" rerouteNo="0" devices="tripinfo_1072_3.619" vType="DEFAULT_VEHTYPE" speedFactor="1.09" vaporized=""/>
    <tripinfo id="543_1.408" depart="95.00" departLane="2110697#0_0" departPos="115.30" departSpeed="7.65" departDelay="0.00" arrival="196.00" arrivalLane="-43321718#3_0" arrivalPos="37.17" arrivalSpeed="6.37" duration="101.00" routeLength="538.86" waitingTime="12.00" waitingCount="1" stopTime="0.00" timeLoss="28.87" rerouteNo="0" devices="tripinfo_543_1.408" vType="DEFAULT_VEHTYPE" speedFactor="0.92" vaporized=""/>
    <tripinfo id="718_3.170" depart="140.00" departLane="317003249#1_0" departPos="16.46" departSpeed="9.08" departDelay="0.00" arrival="196.00" arrivalLane="-43538577#3_0" arrivalPos="66.08" arrivalSpeed="7.81" duration="56.00" routeLength="195.60" waitingTime="28.00" waitingCount="1" stopTime="0.00" timeLoss="33.99" rerouteNo="0" devices="tripinfo_718_3.170" vType="DEFAULT_VEHTYPE" speedFactor="1.09" vaporized=""/>
    <tripinfo id="157_1.292" depart="32.00" departLane="3791745#0_1" departPos="0.87" departSpeed="9.24" departDelay="0.00" arrival="197.00" arrivalLane="8080823#0_0" arrivalPos="112.35" arrivalSpeed="8.01" duration="165.00" routeLength="1369.99" waitingTime="0.00" waitingCount="0" stopTime="0.00" timeLoss="16.38" rerouteNo="0" devices="tripinfo_157_1.292" vType="DEFAULT_VEHTYPE" speedFactor="1.11" vaporized=""/>
    <tripinfo id="1087_2.119" depart="80.00" departLane="554991019_0" departPos="51.38" departSpeed="7.42" departDelay="0.00" arrival="198.00" arrivalLane="-43538577#3_0" arrivalPos="66.08" arrivalSpeed="8.13" duration="118.00" routeLength="518.54" waitingTime="35.00" waitingCount="2" stopTime="0.00" timeLoss="60.92" rerouteNo="0" devices="tripinfo_1087_2.119" vType="DEFAULT_VEHTYPE" speedFactor="1.12" vaporized=""/>
    <tripinfo id="668_5.613" depart="109.00" departLane="532097269#1.24_0" departPos="63.77" departSpeed="8.88" departDelay="0.56" arrival="201.00" arrivalLane="-43538577#3_0" arrivalPos="66.08" arrivalSpeed="7.91" duration="92.00" routeLength="408.23" waitingTime="30.00" waitingCount="2" stopTime="0.00" timeLoss="44.61" rerouteNo="0" devices="tripinfo_668_5.613" vType="DEFAULT_VEHTYPE" speedFactor="1.07" vaporized=""/>
    <tripinfo id="1088_3.563" depart="104.00" departLane="554991019_0" departPos="75.56" departSpeed="9.05" departDelay="0.00" arrival="204.00" arrivalLane="-43538577#3_0" arrivalPos="66.08" arrivalSpeed="7.99" duration="100.00" routeLength="494.36" waitingTime="25.00" waitingCount="3" stopTime="0.00" timeLoss="43.72" rerouteNo="0" devices="tripinfo_1088_3.563" vType="DEFAULT_VEHTYPE" speedFactor="1.09" vaporized=""/>